# vtk DataFile Version 3.0
SM polar seed points transformed to GSW coordinates
ASCII
DATASET POLYDATA
POINTS      288 float
       0.263188       0.000000       1.476730
       0.239157       0.194114       1.468034
       0.168704       0.375000       1.442537
       0.056628       0.530330       1.401978
      -0.089432       0.649519       1.349121
      -0.259523       0.724444       1.287567
      -0.442052       0.750000       1.221511
      -0.624582       0.724444       1.155456
      -0.794672       0.649519       1.093902
      -0.940732       0.530330       1.041044
      -1.052808       0.375000       1.000485
      -1.123261       0.194114       0.974989
      -1.147292      -0.000000       0.966293
      -1.123261      -0.194114       0.974989
      -1.052808      -0.375000       1.000485
      -0.940732      -0.530330       1.041044
      -0.794672      -0.649519       1.093902
      -0.624582      -0.724444       1.155456
      -0.442052      -0.750000       1.221511
      -0.259523      -0.724444       1.287567
      -0.089432      -0.649519       1.349121
       0.056628      -0.530330       1.401978
       0.168704      -0.375000       1.442537
       0.239157      -0.194114       1.468034
       0.133481       0.000000       1.494049
       0.113169       0.164072       1.486699
       0.053619       0.316964       1.465148
      -0.041111       0.448254       1.430866
      -0.164566       0.548997       1.386189
      -0.308333       0.612327       1.334161
      -0.462614       0.633927       1.278329
      -0.616894       0.612327       1.222496
      -0.760661       0.548997       1.170469
      -0.884116       0.448254       1.125792
      -0.978847       0.316964       1.091510
      -1.038397       0.164073       1.069959
      -1.058708      -0.000000       1.062609
      -1.038397      -0.164073       1.069959
      -0.978847      -0.316964       1.091510
      -0.884116      -0.448254       1.125792
      -0.760661      -0.548997       1.170469
      -0.616894      -0.612327       1.222496
      -0.462614      -0.633927       1.278329
      -0.308333      -0.612327       1.334161
      -0.164566      -0.548997       1.386189
      -0.041111      -0.448254       1.430866
       0.053619      -0.316964       1.465148
       0.113169      -0.164073       1.486699
       0.002758       0.000000       1.499997
      -0.013680       0.132782       1.494049
      -0.061873       0.256515       1.476608
      -0.138537       0.362767       1.448864
      -0.238448       0.444297       1.412708
      -0.354797       0.495549       1.370602
      -0.479655       0.513030       1.325418
      -0.604512       0.495549       1.280233
      -0.720861       0.444297       1.238128
      -0.820772       0.362767       1.201971
      -0.897436       0.256515       1.174227
      -0.945629       0.132782       1.156786
      -0.962067      -0.000000       1.150838
      -0.945629      -0.132782       1.156786
      -0.897436      -0.256515       1.174227
      -0.820772      -0.362767       1.201971
      -0.720861      -0.444297       1.238128
      -0.604512      -0.495549       1.280233
      -0.479655      -0.513030       1.325418
      -0.354797      -0.495549       1.370602
      -0.238448      -0.444297       1.412708
      -0.138537      -0.362767       1.448864
      -0.061873      -0.256515       1.476608
      -0.013680      -0.132782       1.494049
      -0.127986       0.000000       1.494530
      -0.140425       0.100481       1.490028
      -0.176895       0.194114       1.476830
      -0.234909       0.274519       1.455836
      -0.310515       0.336216       1.428474
      -0.398561       0.375000       1.396612
      -0.493045       0.388229       1.362419
      -0.587529       0.375000       1.328226
      -0.675575       0.336216       1.296363
      -0.751181       0.274519       1.269002
      -0.809195       0.194114       1.248007
      -0.845665       0.100481       1.234810
      -0.858104      -0.000000       1.230308
      -0.845665      -0.100481       1.234810
      -0.809195      -0.194114       1.248007
      -0.751181      -0.274519       1.269002
      -0.675574      -0.336216       1.296363
      -0.587529      -0.375000       1.328226
      -0.493045      -0.388229       1.362419
      -0.398561      -0.375000       1.396612
      -0.310515      -0.336216       1.428474
      -0.234909      -0.274519       1.455835
      -0.176895      -0.194114       1.476830
      -0.140425      -0.100481       1.490028
      -0.257756       0.000000       1.477688
      -0.266101       0.067415       1.474668
      -0.290570       0.130236       1.465813
      -0.329493       0.184182       1.451727
      -0.380219       0.225576       1.433370
      -0.439291       0.251597       1.411992
      -0.502683       0.260472       1.389051
      -0.566075       0.251597       1.366111
      -0.625147       0.225576       1.344733
      -0.675873       0.184182       1.326376
      -0.714796       0.130236       1.312290
      -0.739265       0.067415       1.303435
      -0.747610      -0.000000       1.300415
      -0.739265      -0.067415       1.303435
      -0.714796      -0.130236       1.312290
      -0.675873      -0.184182       1.326376
      -0.625147      -0.225576       1.344733
      -0.566075      -0.251597       1.366111
      -0.502683      -0.260472       1.389051
      -0.439291      -0.251597       1.411992
      -0.380219      -0.225576       1.433370
      -0.329493      -0.184182       1.451727
      -0.290570      -0.130236       1.465813
      -0.266101      -0.067415       1.474668
      -0.385564       0.000000       1.449600
      -0.389753       0.033836       1.448084
      -0.402034       0.065367       1.443640
      -0.421570       0.092443       1.436570
      -0.447030       0.113219       1.427356
      -0.476678       0.126279       1.416627
      -0.508495       0.130734       1.405113
      -0.540312       0.126279       1.393598
      -0.569961       0.113219       1.382869
      -0.595421       0.092443       1.373655
      -0.614957       0.065367       1.366585
      -0.627238       0.033836       1.362141
      -0.631427      -0.000000       1.360625
      -0.627238      -0.033836       1.362141
      -0.614957      -0.065367       1.366585
      -0.595421      -0.092443       1.373655
      -0.569961      -0.113219       1.382869
      -0.540312      -0.126279       1.393598
      -0.508495      -0.130734       1.405113
      -0.476678      -0.126279       1.416627
      -0.447030      -0.113219       1.427356
      -0.421570      -0.092443       1.436570
      -0.402034      -0.065367       1.443640
      -0.389753      -0.033836       1.448084
       1.147292       0.000000      -0.966293
       1.123261       0.194114      -0.974989
       1.052808       0.375000      -1.000485
       0.940732       0.530330      -1.041044
       0.794672       0.649519      -1.093902
       0.624582       0.724444      -1.155456
       0.442052       0.750000      -1.221511
       0.259523       0.724444      -1.287567
       0.089432       0.649519      -1.349121
      -0.056628       0.530330      -1.401978
      -0.168704       0.375000      -1.442537
      -0.239157       0.194114      -1.468034
      -0.263188      -0.000000      -1.476730
      -0.239157      -0.194114      -1.468034
      -0.168704      -0.375000      -1.442537
      -0.056628      -0.530330      -1.401978
       0.089432      -0.649519      -1.349121
       0.259523      -0.724444      -1.287567
       0.442052      -0.750000      -1.221511
       0.624582      -0.724444      -1.155456
       0.794672      -0.649519      -1.093902
       0.940732      -0.530330      -1.041044
       1.052808      -0.375000      -1.000486
       1.123261      -0.194114      -0.974989
       1.058708       0.000000      -1.062609
       1.038397       0.164072      -1.069959
       0.978847       0.316964      -1.091510
       0.884116       0.448254      -1.125792
       0.760661       0.548997      -1.170469
       0.616894       0.612327      -1.222496
       0.462614       0.633927      -1.278329
       0.308333       0.612327      -1.334161
       0.164566       0.548997      -1.386189
       0.041111       0.448254      -1.430866
      -0.053619       0.316964      -1.465148
      -0.113169       0.164073      -1.486699
      -0.133481      -0.000000      -1.494049
      -0.113169      -0.164073      -1.486699
      -0.053619      -0.316964      -1.465148
       0.041111      -0.448254      -1.430866
       0.164566      -0.548997      -1.386189
       0.308333      -0.612327      -1.334161
       0.462614      -0.633927      -1.278329
       0.616894      -0.612327      -1.222496
       0.760661      -0.548997      -1.170469
       0.884116      -0.448254      -1.125792
       0.978847      -0.316964      -1.091510
       1.038397      -0.164073      -1.069959
       0.962067       0.000000      -1.150838
       0.945629       0.132782      -1.156786
       0.897436       0.256515      -1.174227
       0.820772       0.362767      -1.201971
       0.720861       0.444297      -1.238128
       0.604512       0.495549      -1.280233
       0.479655       0.513030      -1.325418
       0.354797       0.495549      -1.370602
       0.238448       0.444297      -1.412708
       0.138537       0.362767      -1.448864
       0.061873       0.256515      -1.476608
       0.013680       0.132782      -1.494049
      -0.002758      -0.000000      -1.499997
       0.013680      -0.132782      -1.494049
       0.061873      -0.256515      -1.476608
       0.138537      -0.362767      -1.448864
       0.238448      -0.444297      -1.412708
       0.354797      -0.495549      -1.370602
       0.479655      -0.513030      -1.325418
       0.604512      -0.495549      -1.280233
       0.720861      -0.444297      -1.238128
       0.820772      -0.362767      -1.201971
       0.897436      -0.256515      -1.174227
       0.945629      -0.132782      -1.156786
       0.858104       0.000000      -1.230308
       0.845665       0.100481      -1.234810
       0.809195       0.194114      -1.248007
       0.751181       0.274519      -1.269002
       0.675574       0.336216      -1.296363
       0.587529       0.375000      -1.328226
       0.493045       0.388229      -1.362419
       0.398561       0.375000      -1.396612
       0.310515       0.336216      -1.428474
       0.234909       0.274519      -1.455836
       0.176895       0.194114      -1.476830
       0.140425       0.100481      -1.490028
       0.127986      -0.000000      -1.494530
       0.140425      -0.100481      -1.490028
       0.176895      -0.194114      -1.476830
       0.234909      -0.274519      -1.455836
       0.310515      -0.336216      -1.428474
       0.398561      -0.375000      -1.396612
       0.493045      -0.388229      -1.362419
       0.587529      -0.375000      -1.328226
       0.675574      -0.336216      -1.296363
       0.751181      -0.274519      -1.269002
       0.809195      -0.194114      -1.248007
       0.845665      -0.100481      -1.234810
       0.747610       0.000000      -1.300415
       0.739265       0.067415      -1.303435
       0.714796       0.130236      -1.312290
       0.675873       0.184182      -1.326376
       0.625147       0.225576      -1.344733
       0.566075       0.251597      -1.366111
       0.502683       0.260472      -1.389051
       0.439291       0.251597      -1.411992
       0.380219       0.225576      -1.433370
       0.329493       0.184182      -1.451727
       0.290570       0.130236      -1.465813
       0.266101       0.067415      -1.474668
       0.257756      -0.000000      -1.477688
       0.266101      -0.067415      -1.474668
       0.290570      -0.130236      -1.465813
       0.329493      -0.184182      -1.451727
       0.380219      -0.225576      -1.433370
       0.439291      -0.251597      -1.411992
       0.502683      -0.260472      -1.389051
       0.566075      -0.251597      -1.366111
       0.625147      -0.225576      -1.344733
       0.675873      -0.184182      -1.326376
       0.714796      -0.130236      -1.312290
       0.739265      -0.067415      -1.303435
       0.631427       0.000000      -1.360625
       0.627238       0.033836      -1.362141
       0.614957       0.065367      -1.366585
       0.595421       0.092443      -1.373655
       0.569961       0.113219      -1.382869
       0.540312       0.126279      -1.393598
       0.508495       0.130734      -1.405113
       0.476678       0.126279      -1.416627
       0.447030       0.113219      -1.427356
       0.421570       0.092443      -1.436570
       0.402034       0.065367      -1.443640
       0.389753       0.033836      -1.448084
       0.385564      -0.000000      -1.449600
       0.389753      -0.033836      -1.448084
       0.402034      -0.065367      -1.443640
       0.421570      -0.092443      -1.436570
       0.447030      -0.113219      -1.427356
       0.476678      -0.126279      -1.416627
       0.508495      -0.130734      -1.405113
       0.540312      -0.126279      -1.393598
       0.569961      -0.113219      -1.382869
       0.595421      -0.092443      -1.373655
       0.614957      -0.065367      -1.366585
       0.627238      -0.033836      -1.362141
VERTICES      288     576
 1        0
 1        1
 1        2
 1        3
 1        4
 1        5
 1        6
 1        7
 1        8
 1        9
 1       10
 1       11
 1       12
 1       13
 1       14
 1       15
 1       16
 1       17
 1       18
 1       19
 1       20
 1       21
 1       22
 1       23
 1       24
 1       25
 1       26
 1       27
 1       28
 1       29
 1       30
 1       31
 1       32
 1       33
 1       34
 1       35
 1       36
 1       37
 1       38
 1       39
 1       40
 1       41
 1       42
 1       43
 1       44
 1       45
 1       46
 1       47
 1       48
 1       49
 1       50
 1       51
 1       52
 1       53
 1       54
 1       55
 1       56
 1       57
 1       58
 1       59
 1       60
 1       61
 1       62
 1       63
 1       64
 1       65
 1       66
 1       67
 1       68
 1       69
 1       70
 1       71
 1       72
 1       73
 1       74
 1       75
 1       76
 1       77
 1       78
 1       79
 1       80
 1       81
 1       82
 1       83
 1       84
 1       85
 1       86
 1       87
 1       88
 1       89
 1       90
 1       91
 1       92
 1       93
 1       94
 1       95
 1       96
 1       97
 1       98
 1       99
 1      100
 1      101
 1      102
 1      103
 1      104
 1      105
 1      106
 1      107
 1      108
 1      109
 1      110
 1      111
 1      112
 1      113
 1      114
 1      115
 1      116
 1      117
 1      118
 1      119
 1      120
 1      121
 1      122
 1      123
 1      124
 1      125
 1      126
 1      127
 1      128
 1      129
 1      130
 1      131
 1      132
 1      133
 1      134
 1      135
 1      136
 1      137
 1      138
 1      139
 1      140
 1      141
 1      142
 1      143
 1      144
 1      145
 1      146
 1      147
 1      148
 1      149
 1      150
 1      151
 1      152
 1      153
 1      154
 1      155
 1      156
 1      157
 1      158
 1      159
 1      160
 1      161
 1      162
 1      163
 1      164
 1      165
 1      166
 1      167
 1      168
 1      169
 1      170
 1      171
 1      172
 1      173
 1      174
 1      175
 1      176
 1      177
 1      178
 1      179
 1      180
 1      181
 1      182
 1      183
 1      184
 1      185
 1      186
 1      187
 1      188
 1      189
 1      190
 1      191
 1      192
 1      193
 1      194
 1      195
 1      196
 1      197
 1      198
 1      199
 1      200
 1      201
 1      202
 1      203
 1      204
 1      205
 1      206
 1      207
 1      208
 1      209
 1      210
 1      211
 1      212
 1      213
 1      214
 1      215
 1      216
 1      217
 1      218
 1      219
 1      220
 1      221
 1      222
 1      223
 1      224
 1      225
 1      226
 1      227
 1      228
 1      229
 1      230
 1      231
 1      232
 1      233
 1      234
 1      235
 1      236
 1      237
 1      238
 1      239
 1      240
 1      241
 1      242
 1      243
 1      244
 1      245
 1      246
 1      247
 1      248
 1      249
 1      250
 1      251
 1      252
 1      253
 1      254
 1      255
 1      256
 1      257
 1      258
 1      259
 1      260
 1      261
 1      262
 1      263
 1      264
 1      265
 1      266
 1      267
 1      268
 1      269
 1      270
 1      271
 1      272
 1      273
 1      274
 1      275
 1      276
 1      277
 1      278
 1      279
 1      280
 1      281
 1      282
 1      283
 1      284
 1      285
 1      286
 1      287
POINT_DATA      288
SCALARS hemisphere int 1
LOOKUP_TABLE default
 1
 1
 1
 1
 1
 1
 1
 1
 1
 1
 1
 1
 1
 1
 1
 1
 1
 1
 1
 1
 1
 1
 1
 1
 1
 1
 1
 1
 1
 1
 1
 1
 1
 1
 1
 1
 1
 1
 1
 1
 1
 1
 1
 1
 1
 1
 1
 1
 1
 1
 1
 1
 1
 1
 1
 1
 1
 1
 1
 1
 1
 1
 1
 1
 1
 1
 1
 1
 1
 1
 1
 1
 1
 1
 1
 1
 1
 1
 1
 1
 1
 1
 1
 1
 1
 1
 1
 1
 1
 1
 1
 1
 1
 1
 1
 1
 1
 1
 1
 1
 1
 1
 1
 1
 1
 1
 1
 1
 1
 1
 1
 1
 1
 1
 1
 1
 1
 1
 1
 1
 1
 1
 1
 1
 1
 1
 1
 1
 1
 1
 1
 1
 1
 1
 1
 1
 1
 1
 1
 1
 1
 1
 1
 1
-1
-1
-1
-1
-1
-1
-1
-1
-1
-1
-1
-1
-1
-1
-1
-1
-1
-1
-1
-1
-1
-1
-1
-1
-1
-1
-1
-1
-1
-1
-1
-1
-1
-1
-1
-1
-1
-1
-1
-1
-1
-1
-1
-1
-1
-1
-1
-1
-1
-1
-1
-1
-1
-1
-1
-1
-1
-1
-1
-1
-1
-1
-1
-1
-1
-1
-1
-1
-1
-1
-1
-1
-1
-1
-1
-1
-1
-1
-1
-1
-1
-1
-1
-1
-1
-1
-1
-1
-1
-1
-1
-1
-1
-1
-1
-1
-1
-1
-1
-1
-1
-1
-1
-1
-1
-1
-1
-1
-1
-1
-1
-1
-1
-1
-1
-1
-1
-1
-1
-1
-1
-1
-1
-1
-1
-1
-1
-1
-1
-1
-1
-1
-1
-1
-1
-1
-1
-1
-1
-1
-1
-1
-1
-1
