<?xml version="1.0"?>
<VTKFile type="StructuredGrid" version="0.1" byte_order="LittleEndian" header_type="UInt32" compressor="vtkZLibDataCompressor">
  <StructuredGrid WholeExtent="0 60 0 20 0 20">
  <Piece Extent="0 60 0 20 0 20">
    <PointData Vectors="B_total">
      <DataArray type="Float32" Name="B_total" NumberOfComponents="3" format="ascii" RangeMin="0" RangeMax="56202.49972995045">
        -8.506887 -0.7305433 3.3689914 -8.812334 -0.75227493 3.4516025
        -9.12783 -0.7758744 3.5347266 -9.453745 -0.8015674 3.6181965
        -9.790498 -0.8296072 3.7018309 -10.13856 -0.8602782 3.7854323
        -10.498467 -0.8938997 3.8687854 -10.87082 -0.9308308 3.9516492
        -11.256306 -0.97147536 4.033756 -11.655695 -1.016288 4.1148
        -12.069857 -1.0657814 4.1944337 -12.499767 -1.1205329 4.2722507
        -12.946514 -1.1811941 4.3477793 -13.4113 -1.2484995 4.420464
        -13.895442 -1.3232776 4.48965 -14.400377 -1.4064614 4.5545654
        -14.927642 -1.4991008 4.614303 -15.478868 -1.6023749 4.667801
        -16.055758 -1.717605 4.713822 -16.660063 -1.8462684 4.7509475
        -17.29355 -1.9900123 4.7775574 -17.957964 -2.1506693 4.791832
        -18.654995 -2.330273 4.7917504 -19.38624 -2.5310762 4.7750983
        -20.15317 -2.7555776 4.739478 -20.957102 -3.0065472 4.682323
        -21.799156 -3.2870634 4.600884 -22.68024 -3.6005604 4.4922476
        -23.600965 -3.9508803 4.3533063 -24.561571 -4.3423295 4.180738
        -25.56176 -4.779739 3.9709945 -26.60052 -5.2685122 3.7203267
        -27.67588 -5.814668 3.4248607 -28.7847 -6.4248624 3.0807555
        -29.922482 -7.106409 2.6844287 -31.083311 -7.867296 2.232792
        -32.259926 -8.7162075 1.7234299 -33.443798 -9.662523 1.1545991
        -34.62513 -10.716244 0.5250149 -35.792515 -11.887683 -0.16661167
        -36.932022 -13.186723 -0.9220419 -38.025616 -14.621336 -1.7436059
        -39.04922 -16.19508 -2.6333966 -39.97128 -17.903526 -3.5910273
        -40.75313 -19.729855 -4.609902 -41.352673 -21.640648 -5.672566
        -41.732132 -23.583298 -6.746515 -41.869385 -25.487 -7.782293
        -41.770535 -27.268822 -8.715485 -41.479786 -28.845112 -9.47328
        -41.08253 -30.146664 -9.984573 -40.69889 -31.134037 -10.190999
        -0.067210674 -0.33489513 0.41508102 -0.062262878 -0.3488388 0.40407085
        -0.052529216 -0.3607645 0.39608335 -0.03958416 -0.3695469 0.39187384
        -0.025225163 -0.37468147 0.39155722 -0.011068344 -0.37629128 0.3947115
        0.0016832352 -0.37489033 0.40059137 0.012316227 -0.37120724 0.40833068
        0.020555496 -0.3659935 0.41710496 -8.572133 -0.7120677 3.4302692
        -8.881442 -0.733077 3.5133338 -9.201114 -0.75585437 3.5967793
        -9.531549 -0.78060615 3.6804283 -9.873203 -0.8075637 3.7640884
        -10.226587 -0.836987 3.8475513 -10.59228 -0.8691679 3.930588
        -10.970939 -0.90443456 4.012946 -11.363302 -0.9431569 4.0943418
        -11.770216 -0.98575205 4.1744523 -12.192623 -1.0326908 4.252908
        -12.631592 -1.0845053 4.3292785 -13.088308 -1.1417978 4.403059
        -13.564092 -1.2052493 4.473653 -14.060395 -1.2756305 4.5403557
        -14.578798 -1.3538135 4.60233 -15.121009 -1.4407834 4.6585894
        -15.688843 -1.5376523 4.707969 -16.284212 -1.6456729 4.7491136
        -16.90909 -1.7662536 4.780453 -17.565493 -1.9009743 4.800194
        -18.255434 -2.0516043 4.8063087 -18.98089 -2.2201207 4.796541
        -19.743776 -2.4087338 4.7684083 -20.545908 -2.619914 4.7192097
        -21.38898 -2.8564298 4.646042 -22.274553 -3.1213915 4.545778
        -23.204012 -3.4183137 4.4150786 -24.178534 -3.7511833 4.250347
        -25.19897 -4.124538 4.0476837 -26.265732 -4.5435543 3.802865
        -27.378534 -5.0141296 3.5113308 -28.53616 -5.5429673 3.168275
        -29.736202 -6.137654 2.768793 -30.974846 -6.8067436 2.3081264
        -32.246822 -7.559864 1.781907 -33.545433 -8.407842 1.1863177
        -34.862633 -9.362828 0.5179992 -36.188923 -10.438342 -0.22633886
        -37.51269 -11.649062 -1.0506072 -38.818703 -13.010052 -1.9600432
        -40.085526 -14.535018 -2.9613507 -41.282253 -16.233156 -4.0614543
        -42.365685 -18.104326 -5.2640796 -43.279976 -20.132801 -6.56395
        -43.961037 -22.28075 -7.939423 -44.347237 -24.483469 -9.345612
        -44.396023 -26.649284 -10.710997 -44.103233 -28.666729 -11.940371
        -43.51911 -30.41978 -12.925297 -42.754272 -31.809223 -13.560837
        -41.97082 -32.774498 -13.763922 -41.35923 -33.309353 -13.487343
        -0.07741505 -0.33834648 0.37401867 -0.064679384 -0.35416603 0.3637228
        -0.047770977 -0.3660221 0.35890722 -0.029262066 -0.37324905 0.35959816
        -0.011382103 -0.376029 0.3650322 0.0043177605 -0.37508392 0.37400246
        0.017012596 -0.37138748 0.38520336 0.026494026 -0.36592007 0.39745903
        -8.642282 -0.6902017 3.490816 -8.955443 -0.71006817 3.574289
        -9.279257 -0.731569 3.6580117 -9.614156 -0.7548896 3.741796
        -9.960625 -0.78023785 3.8254395 -10.319211 -0.8078468 3.9087222
        -10.690536 -0.8379788 3.9914043 -11.075304 -0.870929 4.0732193
        -11.474311 -0.9070303 4.153869 -11.888461 -0.94665873 4.233015
        -12.318775 -0.9902396 4.310265 -12.766399 -1.0382547 4.3851643
        -13.23262 -1.0912505 4.4571757 -13.718864 -1.1498471 4.5256634
        -14.22671 -1.2147483 4.5898714 -14.75788 -1.2867533 4.6488986
        -15.31424 -1.3667687 4.701677 -15.897789 -1.4558218 4.7469435
        -16.510633 -1.5550753 4.7832174 -17.154976 -1.6658429 4.8087816
        -17.833069 -1.7896065 4.821663 -18.547192 -1.9280344 4.8196263
        -19.299623 -2.083005 4.80017 -20.092592 -2.2566316 4.7605357
        -20.92828 -2.451297 4.6977124 -21.808784 -2.669694 4.6084313
        -22.736132 -2.914882 4.4891777 -23.71225 -3.1903555 4.3361464
        -24.738935 -3.5001295 4.1452045 -25.817772 -3.8488376 3.9118161
        -26.949982 -4.241844 3.6309867 -28.136196 -4.6853657 3.2972393
        -29.376179 -5.186597 2.9046688 -30.66855 -5.7538524 2.4470973
        -32.010582 -6.3967338 1.9183184 -33.398132 -7.1263404 1.3123099
        -34.82573 -7.9555397 0.6233454 -36.28661 -8.899264 -0.15425754
        -37.772507 -9.974751 -1.0267913 -39.272648 -11.201507 -2.0022032
        -40.77143 -12.600633 -3.0911667 -42.244537 -14.192932 -4.3073335
        -43.653725 -15.995146 -5.6655927 -44.94198 -18.013811 -7.177056
        -46.031673 -20.23682 -8.84034 -46.829407 -22.623854 -10.630107
        -47.24022 -25.098547 -12.48597 -47.19134 -27.546322 -14.306372
        -46.66118 -29.822289 -15.95234 -45.704758 -31.77127 -17.263838
        -44.464348 -33.2573 -18.086718 -43.157413 -34.19473 -18.302925
        -42.042103 -34.57011 -17.85321 -37.338753 -31.112844 -15.074911
        -0.081120014 -0.33771324 0.32686806 -0.059197903 -0.35415268 0.32091522
        -0.035451412 -0.3647642 0.32269 -0.012924194 -0.36979294 0.33090067
        0.006385803 -0.37020588 0.34368467 0.021552563 -0.3672657 0.3591218
        0.03247595 -0.36219501 0.37557745 -8.714577 -0.6633425 3.5491598
        -9.031474 -0.68165475 3.6330326 -9.359288 -0.7014401 3.717032
        -9.698477 -0.7228615 3.8009613 -10.049556 -0.7461021 3.8846076
        -10.413105 -0.7713671 3.9677417 -10.789782 -0.7988875 4.0501127
        -11.180335 -0.8289237 4.131443 -11.585612 -0.8617695 4.2114205
        -12.006574 -0.8977573 4.2896905 -12.444306 -0.93726367 4.365843
        -12.900034 -0.9807162 4.439399 -13.37513 -1.0286008 4.509791
        -13.871123 -1.0814701 4.576347 -14.389706 -1.1399534 4.6382613
        -14.932735 -1.204767 4.6945744 -15.502226 -1.2767266 4.74414
        -16.100344 -1.3567595 4.7856007 -16.729385 -1.4459194 4.817359
        -17.391762 -1.5454019 4.837553 -18.089958 -1.6565617 4.844039
        -18.826519 -1.7809327 4.834379 -19.604002 -1.9202504 4.805837
        -20.424963 -2.0764818 4.7553787 -21.291939 -2.2518606 4.6796875
        -22.20745 -2.4489298 4.575136 -23.174004 -2.6706078 4.4378066
        -24.194092 -2.9202619 4.263423 -25.270187 -3.2018027 4.0472918
        -26.404669 -3.519801 3.784203 -27.59967 -3.8796184 3.4683392
        -28.856876 -4.287562 3.093216 -30.177227 -4.751051 2.651716
        -31.56065 -5.278825 2.1362183 -33.00588 -5.8811927 1.5388086
        -34.510437 -6.5703673 0.8514596 -36.07076 -7.360898 0.06599927
        -37.682297 -8.270169 -0.8263619 -39.339157 -9.318903 -1.8360696
        -41.03272 -10.531398 -2.976806 -42.748398 -11.935084 -4.267085
        -44.460022 -13.558653 -5.730812 -46.122177 -15.427895 -7.3949757
        -47.662315 -17.55832 -9.2827015 -48.976498 -19.94434 -11.400562
        -49.934067 -22.546219 -13.721295 -50.3956 -25.278004 -16.166191
        -50.24582 -28.002155 -18.594168 -49.43617 -30.537489 -20.805943
        -48.024006 -32.684345 -22.568428 -46.190983 -34.264328 -23.657347
        -44.22679 -35.163372 -23.90586 -42.478165 -35.361908 -23.240913
        -41.279385 -34.93991 -21.692379 -0.1037426 -0.30749512 0.28867722
        -0.07557917 -0.33061218 0.28030872 -0.045240402 -0.34648418 0.2827034
        -0.016923904 -0.3553629 0.29382896 0.00685215 -0.35850048 0.3108759
        0.025051117 -0.35747623 0.33111095 0.037745476 -0.35379124 0.35230732
        -8.785891 -0.6305445 3.6038213 -9.106294 -0.6469222 3.6881032
        -9.437852 -0.6645899 3.7724037 -9.781042 -0.6836877 3.8565173
        -10.136406 -0.7043729 3.9402237 -10.504555 -0.7268221 4.0232844
        -10.886178 -0.7512342 4.105439 -11.282063 -0.7778332 4.186401
        -11.693102 -0.80687255 4.2658463 -12.120307 -0.8386391 4.343406
        -12.564823 -0.87345845 4.4186544 -13.027946 -0.9117009 4.4910903
        -13.511125 -0.9537878 4.560122 -14.015982 -1.0001997 4.6250415
        -14.544313 -1.0514847 4.6850023 -15.098093 -1.1082687 4.7389894
        -15.679473 -1.171266 4.785788 -16.290773 -1.2412909 4.8239536
        -16.934464 -1.3192722 4.8517823 -17.613144 -1.4062669 4.8672814
        -18.329525 -1.5034782 4.86815 -19.086382 -1.6122737 4.8517632
        -19.88655 -1.7342092 4.815167 -20.732895 -1.8710573 4.755073
        -21.628302 -2.024845 4.667871 -22.575699 -2.197895 4.549601
        -23.578072 -2.3928967 4.3959503 -24.638493 -2.6129785 4.2021856
        -25.760118 -2.8618114 3.9630585 -26.946146 -3.143731 3.6726825
        -28.199686 -3.4638846 3.3244023 -29.523552 -3.828403 2.9106965
        -30.920002 -4.2446084 2.4231699 -32.390488 -4.7212706 1.8526506
        -33.935524 -5.268933 1.1893442 -35.55477 -5.9003663 0.4229226
        -37.24724 -6.631144 -0.45771003 -39.0115 -7.480374 -1.4651935
        -40.845245 -8.471466 -2.6153028 -42.74349 -9.632725 -3.9292204
        -44.694344 -10.997257 -5.4359465 -46.671387 -12.601374 -7.1733403
        -48.62291 -14.480297 -9.18544 -50.459995 -16.659906 -11.513215
        -52.04876 -19.14381 -14.176819 -53.213448 -21.89655 -17.150513
        -53.75844 -24.82676 -20.335468 -53.512035 -27.777359 -23.541134
        -52.386883 -30.532246 -26.488392 -50.438805 -32.84641 -28.84459
        -47.897064 -34.49714 -30.288784 -45.14317 -35.34107 -30.588057
        -42.636692 -35.35428 -29.654287 -40.814068 -34.637455 -27.556126
        -40.00019 -33.385117 -24.48214 -0.09914398 -0.29261398 0.24173355
        -0.06062889 -0.31605816 0.24329662 -0.025071144 -0.33085632 0.25667667
        0.004255295 -0.33850384 0.27783585 0.026255608 -0.34092522 0.30295563
        0.041238785 -0.3399191 0.3290491 -8.852961 -0.5915107 3.653329
        -9.176536 -0.6056188 3.738028 -9.51147 -0.6208174 3.8226547
        -9.85826 -0.6372237 3.9069967 -10.217469 -0.6549686 3.9908273
        -10.589734 -0.6741996 4.073901 -10.975774 -0.6950824 4.1559505
        -11.37641 -0.71780443 4.23668 -11.792571 -0.7425773 4.315757
        -12.225316 -0.7696413 4.3928 -12.675842 -0.79926926 4.46737
        -13.145503 -0.8317718 4.5389485 -13.635817 -0.86750317 4.606921
        -14.148485 -0.9068678 4.670553 -14.685396 -0.9503281 4.72896
        -15.248629 -0.9984128 4.7810783 -15.840452 -1.0517267 4.825636
        -16.46332 -1.1109611 4.8611135 -17.119858 -1.1769066 4.885714
        -17.812838 -1.2504656 4.897331 -18.545158 -1.3326681 4.893527
        -19.31982 -1.4246898 4.8715124 -20.139902 -1.5278741 4.8281403
        -21.008549 -1.6437583 4.759898 -21.92898 -1.7741109 4.6629148
        -22.904501 -1.9209698 4.5329237 -23.938555 -2.0867114 4.365257
        -25.034765 -2.2741227 4.154755 -26.196959 -2.4864993 3.895651
        -27.42913 -2.7277708 3.5814128 -28.735367 -3.0026486 3.2045789
        -30.119627 -3.3168082 2.756616 -31.585545 -3.6771142 2.2278683
        -33.136208 -4.0919094 1.6075921 -34.774128 -4.5713964 0.8840457
        -36.50143 -5.1281633 0.04442501 -38.32023 -5.7778883 -0.92560196
        -40.23295 -6.5402374 -2.043107 -42.2419 -7.439889 -3.3301458
        -44.347164 -8.507462 -4.816948 -46.54127 -9.779865 -6.545388
        -48.799473 -11.29915 -8.570875 -51.065323 -13.108493 -10.959494
        -53.23402 -15.243656 -13.776305 -55.13952 -17.718674 -17.061836
        -56.555088 -20.505997 -20.796928 -57.218353 -23.514977 -24.862751
        -56.887398 -26.576965 -29.010529 -55.423363 -29.44955 -32.86142
        -52.87531 -31.850052 -35.9543 -49.527573 -33.517384 -37.841732
        -45.87314 -34.28308 -38.205437 -42.509 -34.12136 -36.942
        -39.992714 -33.15398 -34.17759 -38.721416 -31.609198 -30.207165
        -1.1324587 -1.0011024 -0.44849968 -0.0839138 -0.27261066 0.21009445
        -0.03944683 -0.2955265 0.22381878 -0.0031738281 -0.30965328 0.24791431
        0.02365303 -0.31722832 0.27719402 0.04169941 -0.3203578 0.30769682
        -8.912659 -0.5465088 3.6962588 -9.238973 -0.5580652 3.781364
        -9.576815 -0.57050145 3.866324 -9.9267 -0.5839109 3.9509215
        -10.289207 -0.59839815 4.034925 -10.664997 -0.614081 4.118083
        -11.054813 -0.63109213 4.2001233 -11.459502 -0.64958125 4.2807426
        -11.88003 -0.6697181 4.359601 -12.317487 -0.691695 4.43631
        -12.773117 -0.71573085 4.5104175 -13.248322 -0.74207515 4.581392
        -13.74468 -0.7710128 4.648601 -14.263958 -0.8028695 4.711286
        -14.808121 -0.83801806 4.768533 -15.379333 -0.8768854 4.8192425
        -15.979965 -0.9199609 4.86209 -16.612587 -0.967805 4.8954973
        -17.279947 -1.0210594 4.917589 -17.984968 -1.080459 4.926167
        -18.730713 -1.1468445 4.9186783 -19.52037 -1.2211785 4.892198
        -20.357233 -1.304565 4.843417 -21.244692 -1.3982717 4.768635
        -22.186256 -1.503765 4.6637554 -23.18557 -1.6227412 4.5242558
        -24.246492 -1.7571924 4.3451586 -25.37314 -1.9094673 4.12093
        -26.569946 -2.082365 3.845344 -27.84166 -2.279246 3.5112948
        -29.193256 -2.5041757 3.1105914 -30.629799 -2.7620952 2.6337729
        -32.156242 -3.059047 2.070013 -33.77731 -3.402463 1.4070845
        -35.497536 -3.8015637 0.6313598 -37.32164 -4.267906 -0.27242637
        -39.25508 -4.8161364 -1.3219204 -41.304543 -5.464966 -2.5388722
        -43.47762 -6.2383437 -3.9521067 -45.78042 -7.1666365 -5.601802
        -48.21129 -8.287355 -7.544258 -50.748955 -9.644567 -9.854956
        -53.334274 -11.285521 -12.625862 -55.84821 -13.252608 -15.951452
        -58.092896 -15.568914 -19.89895 -59.788155 -18.216984 -24.46167
        -60.59836 -21.11412 -29.503296 -60.201176 -24.0932 -34.711895
        -58.395332 -26.90347 -39.59333 -55.217407 -29.244843 -43.532967
        -51.011387 -30.836054 -45.929924 -46.396854 -31.495596 -46.363407
        -42.127037 -31.198761 -44.715874 -38.89373 -30.0818 -41.190105
        -37.168007 -28.392635 -36.215183 -37.136936 -26.415844 -30.296314
        -0.11711502 -0.21807384 0.1901455 -0.06195736 -0.25073242 0.20068932
        -0.017202377 -0.2729473 0.2252388 0.015727043 -0.28716087 0.25689125
        0.03782177 -0.29571486 0.29052353 -8.962222 -0.4962551 3.7313063
        -9.290754 -0.5050346 3.8167763 -9.63095 -0.51447517 3.9020467
        -9.9833355 -0.5246464 3.9868965 -10.348507 -0.5356265 4.0710893
        -10.727139 -0.54750335 4.1543717 -11.119992 -0.5603762 4.2364655
        -11.527941 -0.5743571 4.3170633 -11.951971 -0.5895729 4.3958197
        -12.393209 -0.60616785 4.4723396 -12.852925 -0.624306 4.5461626
        -13.332568 -0.64417475 4.616747 -13.833757 -0.66598785 4.683446
        -14.358314 -0.6899903 4.745484 -14.90826 -0.7164627 4.801924
        -15.485834 -0.7457269 4.851636 -16.093485 -0.7781521 4.893261
        -16.733868 -0.81416196 4.9251685 -17.409842 -0.8542422 4.945429
        -18.12444 -0.89895016 4.951767 -18.880863 -0.94892484 4.941543
        -19.682447 -1.0048996 4.9117255 -20.53266 -1.0677174 4.858878
        -21.435099 -1.1383524 4.7791553 -22.3935 -1.217927 4.668274
        -23.411802 -1.3077561 4.521514 -24.494205 -1.4093839 4.333645
        -25.645245 -1.5246426 4.0988293 -26.869867 -1.655727 3.8104634
        -28.173454 -1.8052893 3.4609628 -29.561762 -1.976557 3.0415232
        -31.040806 -2.1734855 2.541903 -32.61672 -2.400951 1.950268
        -34.295692 -2.665011 1.2531065 -36.08415 -2.9732656 0.43511128
        -37.989235 -3.3353596 -0.521214 -40.01962 -3.7636826 -1.6366096
        -42.186172 -4.274293 -2.9372623 -44.501793 -4.8880625 -4.4585686
        -46.978825 -5.631898 -6.250516 -49.62204 -6.539691 -8.383865
        -52.41478 -7.6522026 -10.954605 -55.297184 -9.014587 -14.081645
        -58.13866 -10.669651 -17.89121 -60.712738 -12.644918 -22.48084
        -62.6884 -14.932571 -27.861095 -63.65753 -17.464806 -33.882664
        -63.215027 -20.092978 -40.171883 -61.092464 -22.585457 -46.114815
        -57.309402 -24.658796 -50.93213 -52.2688 -26.044195 -53.85591
        -46.720535 -26.56824 -54.354443 -41.57883 -26.210209 -52.29878
        -37.67047 -25.105139 -47.980988 -35.535187 -23.492596 -41.980274
        -35.356686 -21.640547 -34.95722 -0.16098595 -0.158185 0.1904316
        -0.09365463 -0.20061302 0.19279861 -0.038974762 -0.2313919 0.21399689
        0.0013542175 -0.25293493 0.2451868 0.028633118 -0.26766682 0.2797861
        -8.999405 -0.4417988 3.7573643 -9.329574 -0.44763333 3.8431258
        -9.6715 -0.45390484 3.9286501 -10.025724 -0.46065927 4.013714
        -10.392851 -0.46794826 4.0980783 -10.773564 -0.47582984 4.1814866
        -11.168647 -0.4843696 4.2636576 -11.578979 -0.49364173 4.344281
        -12.005572 -0.50373006 4.423009 -12.449572 -0.5147302 4.4994392
        -12.912274 -0.526751 4.5731077 -13.395153 -0.53991646 4.643465
        -13.899863 -0.55436873 4.7098546 -14.428264 -0.5702706 4.771488
        -14.982421 -0.5878087 4.827413 -15.564622 -0.60719734 4.876479
        -16.177374 -0.62868255 4.917298 -16.823397 -0.652547 4.94821
        -17.505627 -0.6791153 4.967239 -18.227177 -0.7087604 4.972061
        -18.991348 -0.7419104 4.959972 -19.801588 -0.779058 4.927864
        -20.661491 -0.82077026 4.8722115 -21.574804 -0.8677049 4.7890596
        -22.545444 -0.9206203 4.6740007 -23.577559 -0.98040926 4.522162
        -24.675604 -1.0481236 4.3281307 -25.844437 -1.1250162 4.0858464
        -27.089392 -1.2125939 3.7884214 -28.416332 -1.3126867 3.427916
        -29.831612 -1.4275329 2.9950664 -31.34199 -1.5598902 2.479035
        -32.95452 -1.7131801 1.8672159 -34.676567 -1.8916848 1.1451015
        -36.516064 -2.1008177 0.29606032 -38.482174 -2.3475125 -0.69918656
        -40.586216 -2.6407554 -1.8639052 -42.842613 -2.9923098 -3.2279677
        -45.268795 -3.4176242 -4.8322935 -47.882595 -3.936843 -6.735234
        -50.694645 -4.575679 -9.0200405 -53.692966 -5.3655825 -11.800658
        -56.818214 -6.3422112 -15.220074 -59.93158 -7.5406504 -19.433424
        -62.78392 -8.985688 -24.567001 -65.002144 -10.675978 -30.64975
        -66.11595 -12.56378 -37.52443 -65.64707 -14.536975 -44.765182
        -63.265526 -16.415815 -51.650986 -58.973087 -17.977077 -57.251537
        -53.223465 -19.007526 -60.643867 -46.88242 -19.369762 -61.193676
        -41.007294 -19.049253 -58.763985 -36.54245 -18.156536 -53.7343
        -34.083298 -16.883848 -46.8255 -33.804367 -15.442148 -38.84104
        -0.2138176 -0.10231113 0.21541405 -0.13381004 -0.15199709 0.20404243
        -0.06837273 -0.18996 0.21735954 -0.019664764 -0.21818542 0.24447346
        0.013796806 -0.23886013 0.27726173 -9.022579 -0.38441774 3.7735937
        -9.353751 -0.38719574 3.8595467 -9.696739 -0.39018357 3.9452403
        -10.052089 -0.39340338 4.03045 -10.420412 -0.39688033 4.114935
        -10.802401 -0.40064254 4.1984367 -11.198842 -0.4047219 4.2806745
        -11.610633 -0.40915447 4.361335 -12.038791 -0.41398114 4.4400663
        -12.484472 -0.41924852 4.516466 -12.948994 -0.42500967 4.590066
        -13.433845 -0.43132535 4.6603117 -13.940698 -0.43826506 4.7265425
        -14.471436 -0.44590855 4.7879605 -15.028152 -0.45434737 4.843606
        -15.613163 -0.46368682 4.892315 -16.229012 -0.47404793 4.932683
        -16.878456 -0.4855699 4.9630313 -17.564476 -0.4984128 4.9813576
        -18.290241 -0.51276076 4.9853086 -19.059107 -0.52882576 4.972141
        -19.87459 -0.54685163 4.9387016 -20.74036 -0.5671202 4.88141
        -21.660263 -0.5899597 4.796249 -22.638313 -0.61574656 4.678732
        -23.678797 -0.6449284 4.523895 -24.786325 -0.67803293 4.326214
        -25.965954 -0.7156915 4.0794926 -27.223259 -0.7586659 3.7766705
        -28.564404 -0.8078842 3.4095848 -29.996117 -0.8644879 2.9686875
        -31.52562 -0.92988735 2.4427698 -33.160557 -1.0058413 1.8187445
        -34.909035 -1.0945609 1.0814706 -36.779972 -1.1988523 0.2134769
        -38.78384 -1.3223264 -0.80567 -40.93371 -1.4696785 -2.000883
        -43.246346 -1.6470768 -3.4044633 -45.742237 -1.8626488 -5.0610056
        -48.442947 -2.1270337 -7.0344744 -51.363167 -2.4538946 -9.416576
        -54.494354 -2.8601022 -12.333516 -57.77797 -3.36509 -15.944922
        -61.070374 -3.988456 -20.42618 -64.10795 -4.7447815 -25.9242
        -66.489975 -5.6348047 -32.481903 -67.704346 -6.6338043 -39.93821
        -67.222534 -7.6813097 -47.832367 -64.67142 -8.679533 -55.369087
        -60.039402 -9.507118 -61.5117 -53.814606 -10.048515 -65.22711
        -46.94284 -10.229641 -65.80818 -40.58028 -10.043615 -63.1138
        -35.751076 -9.552002 -57.587414 -33.08645 -8.860752 -50.051983
        -32.751877 -8.084974 -41.41158 -0.2708149 -0.061429024 0.2647419
        -0.17931175 -0.11308455 0.23508835 -0.1034832 -0.15471292 0.2362957
        -0.04623413 -0.18734932 0.25574684 -0.006111145 -0.21253085 0.28381062
        -9.030762 -0.3255313 3.7794743 -9.362276 -0.325197 3.8654993
        -9.705627 -0.32484385 3.9512575 -10.061361 -0.32447037 4.036524
        -10.430093 -0.3240751 4.121058 -10.812516 -0.32365626 4.204601
        -11.209421 -0.32321203 4.2868695 -11.621707 -0.32274038 4.3675513
        -12.050394 -0.322239 4.446293 -12.496648 -0.32170558 4.522692
        -12.961784 -0.3211372 4.5962787 -13.447301 -0.32053104 4.666497
        -13.954878 -0.31988364 4.7326837 -14.486404 -0.31919152 4.79404
        -15.043983 -0.31845054 4.8496017 -15.629938 -0.3176563 4.8981996
        -16.246824 -0.3168039 4.938427 -16.897417 -0.3158878 4.9685955
        -17.584705 -0.31490216 4.986697 -18.311878 -0.31384015 4.9903646
        -19.08231 -0.31269464 4.976844 -19.899536 -0.31145754 4.9429674
        -20.76726 -0.3101202 4.8851347 -21.689344 -0.30867493 4.799307
        -22.669853 -0.30710799 4.6809726 -23.713106 -0.30541003 4.5251355
        -24.823769 -0.3035693 4.3262367 -26.006956 -0.30157393 4.078029
        -27.26833 -0.2994113 3.7733989 -28.614147 -0.2970691 3.4041061
        -30.05126 -0.29453486 2.960507 -31.587038 -0.2917967 2.431266
        -33.22932 -0.28884128 1.8031385 -34.986458 -0.28565347 1.0607641
        -36.867702 -0.28221095 0.1863966 -38.88393 -0.27847326 -0.84079623
        -41.04883 -0.2743676 -2.046273 -43.37992 -0.26975462 -3.46316
        -45.89872 -0.26439372 -5.137295 -48.628025 -0.25788763 -7.134538
        -51.5839 -0.24965674 -9.549456 -54.75889 -0.23895824 -12.512404
        -58.094734 -0.2250475 -16.188637 -61.446136 -0.20734844 -20.760363
        -64.5447 -0.18556881 -26.38144 -66.98054 -0.15948324 -33.09942
        -68.22768 -0.12863046 -40.75176 -67.74092 -0.09283194 -48.865707
        -65.13284 -0.054028958 -56.620808 -60.387566 -0.01778391 -62.944458
        -54.00497 0.008149862 -66.76675 -46.95771 0.017810881 -67.356415
        -40.434677 0.009806186 -64.57124 -35.486168 -0.013134062 -58.87656
        -32.754784 -0.046426296 -51.129776 -32.40273 -0.085605025 -42.26887
        -3.2945442 -0.051713884 -2.594738 -0.22485542 -0.09111661 0.28250122
        -0.14071846 -0.13124384 0.2690487 -0.07593727 -0.16467486 0.27810478
        -0.029464722 -0.19187048 0.29899216 -9.023623 -0.26662618 3.774829
        -9.354812 -0.26317906 3.8608005 -9.697818 -0.25948432 3.9465122
        -10.053185 -0.25551695 4.03174 -10.421526 -0.25124875 4.1162443
        -10.803533 -0.2466482 4.199765 -11.199992 -0.24167971 4.2820215
        -11.6118 -0.23630317 4.3627005 -12.039974 -0.23047313 4.44145
        -12.485673 -0.2241381 4.5178685 -12.950212 -0.21723956 4.5914865
        -13.435076 -0.20971084 4.661749 -13.941944 -0.20147581 4.727996
        -14.472693 -0.19244747 4.7894297 -15.029421 -0.1825262 4.845089
        -15.61444 -0.17159788 4.89381 -16.230291 -0.15953164 4.9341893
        -16.879736 -0.14617741 4.9645457 -17.565748 -0.13136329 4.982878
        -18.2915 -0.11489178 4.9868317 -19.060343 -0.09653663 4.973663
        -19.875792 -0.07603793 4.940218 -20.741516 -0.053096708 4.8829165
        -21.661352 -0.02736954 4.797738 -22.639317 0.0015470302 4.680198
        -23.679688 0.03411931 4.5253305 -24.78707 0.07089761 4.327611
        -25.966507 0.11253688 4.080842 -27.223568 0.15982291 3.7779634
        -28.564402 0.21370804 3.410814 -29.995716 0.27535596 2.9698458
        -31.524712 0.3462006 2.4438534 -33.159004 0.42802295 1.819758
        -34.90666 0.52306086 1.0824273 -36.776546 0.6341603 0.2144134
        -38.77906 0.7650007 -0.80469155 -40.92718 0.9204114 -1.9997368
        -43.237537 1.1068118 -3.4029315 -45.730427 1.3327736 -5.0587215
        -48.427155 1.6096644 -7.0308046 -51.34208 1.9522095 -9.410457
        -54.466217 2.378622 -12.323195 -57.7407 2.9096358 -15.92761
        -61.02173 3.5657737 -20.397604 -64.04625 4.361949 -25.878265
        -66.415115 5.299077 -32.41062 -67.6191 6.3531413 -39.83248
        -67.13365 7.464121 -47.684048 -64.58958 8.53112 -55.17453
        -59.977486 9.423275 -61.27543 -53.78387 10.011467 -64.96337
        -46.948734 10.210947 -65.53846 -40.62001 10.011988 -62.860268
        -35.815033 9.480469 -57.366787 -33.162117 8.730003 -49.87234
        -32.82821 7.88388 -41.273136 -0.36669922 -0.055631638 0.4069252
        -0.26412392 -0.089931965 0.33937073 -0.17537498 -0.12304688 0.3112278
        -0.10540962 -0.15310359 0.3088398 -0.053897858 -0.17924571 0.3211298
        -9.001491 -0.2091893 3.7598345 -9.331693 -0.20268382 3.8456328
        -9.6736555 -0.19570357 3.9311943 -10.027914 -0.18819974 4.0162954
        -10.395075 -0.1801176 4.100697 -10.775826 -0.17139572 4.1841426
        -11.170941 -0.1619648 4.266351 -11.58131 -0.1517467 4.3470125
        -12.007938 -0.14065291 4.4257774 -12.451969 -0.12858307 4.502244
        -12.914705 -0.11542296 4.575948 -13.397614 -0.10104243 4.6463394
        -13.902352 -0.085293 4.7127624 -14.430777 -0.06800456 4.7744265
        -14.984954 -0.04898259 4.8303804 -15.567169 -0.028003898 4.8794713
        -16.179926 -0.0048127305 4.9203124 -16.82595 0.020884233 4.9512415
        -17.508163 0.049423374 4.9702826 -18.229689 0.081190534 4.9751105
        -18.993814 0.11662824 4.9630194 -19.803988 0.15624435 4.930902
        -20.663797 0.20062305 4.875229 -21.576984 0.25043678 4.7920456
        -22.547453 0.3064697 4.676942 -23.579342 0.36963242 4.5250435
        -24.677097 0.44099802 4.3309364 -25.845554 0.5218412 4.08856
        -27.090027 0.61369103 3.791026 -28.416355 0.7183978 3.430395
        -29.830856 0.83821875 2.997406 -31.340242 0.97592825 2.4812293
        -32.95151 1.1349632 1.8692709 -34.67195 1.31962 1.1470441
        -36.509403 1.5353346 0.2979567 -38.472885 1.7890834 -0.6972122
        -40.57355 2.0899434 -1.8616214 -42.82556 2.4498618 -3.2249663
        -45.246006 2.8846214 -4.82788 -47.852245 3.4149194 -6.7282343
        -50.6543 4.067263 -9.008498 -53.63948 4.8740606 -11.781362
        -56.74784 5.8717823 -15.187973 -59.84043 7.095853 -19.38087
        -62.669144 8.570746 -24.483162 -64.86389 10.294662 -30.520649
        -65.95958 12.220079 -37.334354 -65.484955 14.235586 -44.500374
        -63.116833 16.16031 -51.305466 -58.86056 17.765623 -56.833385
        -53.16683 18.829586 -60.177742 -46.89111 19.207285 -60.716248
        -41.0766 18.881348 -58.313618 -36.655777 17.963957 -53.340305
        -34.219036 16.651505 -46.50277 -33.943172 15.160443 -38.59079
        -0.39085388 -0.091350555 0.4771595 -0.29154015 -0.10869932 0.39730453
        -0.20297623 -0.13047743 0.35710716 -0.1311779 -0.15350962 0.3441
        -0.07675648 -0.17566156 0.3476572 -8.965345 -0.15464024 3.735011
        -9.29393 -0.14518686 3.820536 -9.634176 -0.13503456 3.9058619
        -9.986614 -0.12411083 3.9907675 -10.351838 -0.11233442 4.075017
        -10.730522 -0.09961401 4.1583557 -11.123429 -0.08584676 4.2405057
        -11.531429 -0.0709165 4.32116 -11.955511 -0.054691926 4.3999724
        -12.396797 -0.03702393 4.476547 -12.856563 -0.017743057 4.5504236
        -13.336249 0.0033438094 4.6210594 -13.83748 0.026457088 4.687809
        -14.362071 0.051848806 4.7498937 -14.912047 0.079807565 4.806377
        -15.489643 0.11066376 4.8561277 -16.097303 0.14479622 4.8977857
        -16.737684 0.18263888 4.929721 -17.41364 0.22468919 4.950001
        -18.128197 0.27151692 4.956349 -18.884552 0.3237748 4.946125
        -19.686039 0.3822113 4.916294 -20.536112 0.44768542 4.863419
        -21.438362 0.5211851 4.783651 -22.396513 0.60385716 4.6727066
        -23.414486 0.69703275 4.525862 -24.49646 0.80227524 4.337885
        -25.646948 0.9214361 4.102937 -26.870869 1.0567284 3.814412
        -28.173561 1.2108191 3.4647298 -29.560732 1.3869498 3.0450904
        -31.038336 1.5890827 2.5452583 -32.612427 1.8220968 1.9534192