<?xml version="1.0"?>
<VTKFile type="StructuredGrid" version="0.1" byte_order="LittleEndian" header_type="UInt32" compressor="vtkZLibDataCompressor">
  <StructuredGrid WholeExtent="0 60 0 20 0 20">
  <Piece Extent="0 60 0 20 0 20">
    <PointData Vectors="B_total">
      <DataArray type="Float32" Name="B_total" NumberOfComponents="3" format="ascii" RangeMin="0" RangeMax="66240.99362779778">
        -10.792903 -1.6280373 3.1225765 -11.148112 -1.672737 3.212183
        -11.51204 -1.7189102 3.3026247 -11.884836 -1.7667121 3.3935568
        -12.266684 -1.8163233 3.4845858 -12.65781 -1.8679533 3.5752637
        -13.058494 -1.9218429 3.6650822 -13.469068 -1.9782683 3.7534647
        -13.88993 -2.0375435 3.8397593 -14.321548 -2.1000254 3.92323
        -14.764469 -2.166117 4.0030456 -15.219318 -2.2362711 4.0782714
        -15.686802 -2.310997 4.147856 -16.167715 -2.390864 4.2106237
        -16.66293 -2.4765074 4.26526 -17.173397 -2.5686371 4.310305
        -17.700127 -2.6680439 4.3441434 -18.24419 -2.7756093 4.365001
        -18.806677 -2.8923187 4.3709426 -19.3887 -3.0192747 4.359875
        -19.991343 -3.157716 4.3295536 -20.61564 -3.3090377 4.277597
        -21.262535 -3.4748228 4.2015066 -21.932835 -3.6568692 4.098687
        -22.627157 -3.8572354 3.966478 -23.345867 -4.078283 3.8021784
        -24.088997 -4.322735 3.6030965 -24.856136 -4.593736 3.3665779
        -25.64629 -4.8949256 3.0900774 -26.457703 -5.230508 2.771245
        -27.28764 -5.6053476 2.408059 -28.132126 -6.0250473 1.999021
        -28.985653 -6.496022 1.543429 -29.840881 -7.0255623 1.0417331
        -30.688347 -7.62182 0.4959731 -31.516226 -8.293694 -0.08972846
        -32.310127 -9.050515 -0.7086474 -33.05297 -9.901416 -1.3509432
        -33.724937 -10.85425 -2.0031688 -34.303497 -11.913841 -2.6477444
        -34.76362 -13.079525 -3.2622972 -35.078407 -14.341845 -3.8186238
        -35.220577 -15.678699 -4.281137 -35.165478 -17.05145 -4.6047373
        -34.896305 -18.401978 -4.7325954 -34.411736 -19.65204 -4.59477
        -33.73518 -20.706348 -4.1089787 -32.92345 -21.460297 -3.1845815
        -21.292854 -14.598211 -0.99759007 -0.094373465 -0.44910145 0.4292221
        -0.07510877 -0.4757614 0.42019653 -0.050079823 -0.49568653 0.41559076
        -0.022119522 -0.50707245 0.4161086 0.0056171417 -0.50941944 0.42157316
        0.03034401 -0.5034771 0.4310366 0.050160885 -0.4909296 0.44309056
        0.06421614 -0.4739008 0.4562136 0.07259178 -0.454494 0.46910366
        0.076012135 -0.4344821 0.48080683 0.07553482 -0.41517878 0.49077606
        0.07226896 -0.3974111 0.49880743 -10.845826 -1.5164694 3.1151116
        -11.202478 -1.5573543 3.2026918 -11.567987 -1.5995655 3.2909126
        -11.942526 -1.6432434 3.3794234 -12.326305 -1.6885517 3.467823
        -12.719584 -1.7356801 3.5556574 -13.12267 -1.7848481 3.6424103
        -13.535933 -1.8363072 3.7274992 -13.959809 -1.8903443 3.8102643
        -14.394807 -1.9472857 3.8899605 -14.841516 -2.007501 3.9657483
        -15.300607 -2.0714073 4.036682 -15.772837 -2.1394742 4.101699
        -16.259052 -2.2122285 4.1596084 -16.760183 -2.290263 4.20908
        -17.277239 -2.3742402 4.248635 -17.811302 -2.4649045 4.2766333
        -18.36351 -2.5630915 4.2912726 -18.935045 -2.6697426 4.290582
        -19.527111 -2.7859194 4.2724223 -20.140913 -2.9128284 4.2344904
        -20.777615 -3.0518425 4.1743293 -21.438326 -3.204536 4.0893397
        -22.124044 -3.3727226 3.9767962 -22.835632 -3.5585036 3.8338637
        -23.573727 -3.7643254 3.657617 -24.338709 -3.9930506 3.4450738
        -25.13057 -4.248039 3.1932063 -25.9488 -4.5332427 2.8989954
        -26.792221 -4.8533225 2.5594923 -27.658787 -5.2137794 2.1719222
        -28.545322 -5.621093 1.7338307 -29.447262 -6.082876 1.2432926
        -30.358313 -6.608013 0.69918007 -31.270134 -7.206752 0.10147437
        -32.171936 -7.890677 -0.5483776 -33.050056 -8.672487 -1.2470957
        -33.8874 -9.565395 -1.989161 -34.66277 -10.581985 -2.7663074
        -35.35005 -11.732283 -3.5667639 -35.917446 -13.020821 -4.373954
        -36.327114 -14.442556 -5.1643376 -36.53604 -15.977766 -5.9041004
        -36.4993 -17.586576 -6.544856 -36.176826 -19.204102 -7.0190735
        -35.544453 -20.73832 -7.2370224 -34.608208 -22.072765 -7.087505
        -33.41884 -23.07597 -6.444602 -32.081173 -23.617752 -5.1807904
        -30.752369 -23.589958 -3.1840787 -0.10268784 -0.5052757 0.3737998
        -0.068553925 -0.53209305 0.3644433 -0.030044079 -0.5474129 0.36353636
        0.008015633 -0.5504942 0.3708663 0.041469574 -0.5425129 0.38483357
        0.067604065 -0.5259342 0.40306997 0.08537769 -0.50380325 0.42304897
        0.09515762 -0.47902203 0.44264644 0.09820986 -0.4539361 0.46037933
        0.09619188 -0.43018675 0.47543597 0.09073877 -0.4087317 0.48755586
        -10.882609 -1.3981036 3.105385 -11.240215 -1.4349772 3.191088
        -11.606798 -1.4730284 3.2772634 -11.982553 -1.5123824 3.363555
        -12.367717 -1.5531855 3.4495585 -12.762573 -1.5956081 3.534815
        -13.167463 -1.6398469 3.6188056 -13.582787 -1.6861285 3.7009425
        -14.009016 -1.7347112 3.7805626 -14.446696 -1.7858901 3.8569171
        -14.896456 -1.8399999 3.9291613 -15.359013 -1.897419 3.9963443
        -15.835168 -1.9585752 4.0573974 -16.325817 -2.0239508 4.111122
        -16.83195 -2.0940886 4.156179 -17.35463 -2.169601 4.1910753
        -17.895008 -2.2511775 4.214157 -18.4543 -2.339599 4.2236013
        -19.033773 -2.43575 4.217408 -19.634733 -2.5406377 4.193402
        -20.258501 -2.6554146 4.14923 -20.906393 -2.7814074 4.082367
        -21.57969 -2.9201508 3.9901211 -22.27961 -3.0734334 3.869642
        -23.007261 -3.2433507 3.7179239 -23.763626 -3.4323726 3.5318274
        -24.549458 -3.6434245 3.3080666 -25.365225 -3.8799884 3.0432339
        -26.21101 -4.1462226 2.7338114 -27.086344 -4.4471083 2.3762088
        -27.990044 -4.7886257 1.9668133 -28.919992 -5.1779523 1.5020834
        -29.872883 -5.6236987 0.9786607 -30.843887 -6.1361322 0.3935192
        -31.826292 -6.727392 -0.25588247 -32.810963 -7.4115953 -0.9714434
        -33.785683 -8.204753 -1.7542584 -34.734097 -9.124296 -2.6043842
        -35.634377 -10.188009 -3.5204022 -36.457367 -11.412029 -4.49845
        -37.164562 -12.807597 -5.530312 -37.70634 -14.37624 -6.599947
        -38.021698 -16.103373 -7.678105 -38.041164 -17.950745 -8.715011
        -37.694942 -19.849047 -9.632276 -36.92782 -21.693193 -10.316595
        -35.720184 -23.3435 -10.619064 -34.11134 -24.63637 -10.364373
        -32.216843 -25.405598 -9.371714 -30.229977 -25.511566 -7.4845037
        -28.400267 -24.870241 -4.599758 -0.093310356 -0.56713486 0.2937317
        -0.040691376 -0.58758354 0.29028702 0.011137962 -0.5918684 0.30015373
        0.05600357 -0.5816841 0.3206911 0.090091705 -0.5605736 0.3479538
        0.11221981 -0.5327568 0.37782812 0.12326431 -0.5021076 0.4069686
        0.12534714 -0.4716487 0.4331271 0.12097073 -0.44333744 0.4551627
        0.11249304 -0.41823196 0.47279704 -10.905967 -1.2730482 3.0923076
        -11.264141 -1.3057346 3.1762583 -11.631396 -1.3394499 3.2605393
        -12.007947 -1.3743043 3.3447912 -12.394055 -1.4104269 3.4286082
        -12.790028 -1.4479679 3.5115302 -13.196232 -1.4871017 3.5930357
        -13.613098 -1.5280282 3.6725376 -14.04113 -1.5709774 3.7493715
        -14.480908 -1.6162118 3.8227875 -14.9331 -1.6640291 3.8919408
        -15.398458 -1.7147679 3.9558794 -15.877831 -1.7688117 4.013533
        -16.372162 -1.8265936 4.0637 -16.882488 -1.8886039 4.105038
        -17.409939 -1.9553976 4.1360474 -17.955723 -2.0276034 4.155065
        -18.521133 -2.1059363 4.160254 -19.107525 -2.1912124 4.1495943
        -19.716303 -2.2843668 4.1208806 -20.348917 -2.386479 4.0717177
        -21.006832 -2.4987998 3.9995208 -21.691505 -2.6227913 3.9015124
        -22.404388 -2.7601712 3.774725 -23.146864 -2.912974 3.6159933
        -23.92026 -3.0836194 3.421959 -24.72576 -3.2750084 3.1890464
        -25.564362 -3.4906297 2.9134603 -26.436804 -3.7347069 2.5911713
        -27.343445 -4.012366 2.217914 -28.284126 -4.32985 1.7891803
        -29.258003 -4.694776 1.3002331 -30.263308 -5.116428 0.74610853
        -31.297085 -5.6060953 0.12160817 -32.35475 -6.177396 -0.57875013
        -33.42951 -6.846547 -1.3608279 -34.511402 -7.632477 -2.230996
        -35.58584 -8.556551 -3.1961813 -36.63149 -9.641732 -4.263615
        -37.61727 -10.910671 -5.4398203 -38.49878 -12.382375 -6.728156
        -39.2146 -14.066857 -8.124053 -39.684124 -15.957523 -9.607147
        -39.809265 -18.021412 -11.130132 -39.483185 -20.188597 -12.605431
        -38.60924 -22.343775 -13.893432 -37.130543 -24.324566 -14.797964
        -35.065712 -25.932331 -15.07694 -32.539116 -26.958443 -14.472652
        -29.789385 -27.223864 -12.759537 -27.142754 -26.620829 -9.795204
        -24.951403 -25.14068 -5.5534334 -0.055015564 -0.6211777 0.19265842
        0.014679909 -0.62750816 0.2057724 0.07407093 -0.61548996 0.23548317
        0.11791039 -0.589983 0.27536964 0.1449604 -0.55660534 0.31895137
        0.15699291 -0.5203471 0.3610772 0.15732002 -0.48489857 0.39849502
        0.14964867 -0.4525342 0.42968413 0.13722229 -0.42432785 0.45442057
        -10.918791 -1.141504 3.0760415 -11.277246 -1.169842 3.1583717
        -11.644871 -1.1990614 3.2409148 -12.0219 -1.2292573 3.3233118
        -12.408613 -1.2605412 3.4051561 -12.805342 -1.2930434 3.4859874
        -13.212475 -1.3269145 3.5652866 -13.630472 -1.3623289 3.642467
        -14.059863 -1.3994862 3.7168655 -14.50126 -1.4386147 3.7877357
        -14.955364 -1.4799751 3.854234 -15.422965 -1.5238634 3.9154105
        -15.904951 -1.5706158 3.9701972 -16.40231 -1.6206138 4.017394
        -16.916124 -1.6742901 4.055658 -17.447578 -1.7321364 4.0834885
        -17.997944 -1.7947123 4.0992174 -18.568586 -1.8626578 4.1010003
        -19.160942 -1.9367071 4.086802 -19.776524 -2.017706 4.0543933
        -20.416893 -2.1066377 4.0013437 -21.083664 -2.2046504 3.925016
        -21.778488 -2.3130941 3.8225563 -22.50303 -2.4335697 3.6908886
        -23.25897 -2.5679865 3.5266962 -24.047983 -2.718637 3.3264155
        -24.871696 -2.8882933 3.0861883 -25.731676 -3.080325 2.8018394
        -26.62936 -3.2988496 2.4688308 -27.566004 -3.5489259 2.0822103
        -28.542583 -3.8367894 1.6365448 -29.559679 -4.170148 1.1258409
        -30.617306 -4.5585356 0.5434158 -31.714684 -5.0137234 -0.11829233
        -32.849842 -5.5501685 -0.868018 -34.018936 -6.185438 -1.7160786
        -35.21514 -6.94053 -2.6748834 -36.42676 -7.8398924 -3.7593944
        -37.634357 -8.910866 -4.987242 -38.806564 -10.18212 -6.3778877
        -39.894638 -11.680476 -7.9498644 -40.826416 -13.425402 -9.714832
        -41.50127 -15.420506 -11.667053 -41.789345 -17.641788 -13.767477
        -41.539722 -20.02371 -15.923463 -40.60289 -22.446222 -17.968327
        -38.870224 -24.728834 -19.649689 -36.326363 -26.639744 -20.639015
        -33.09884 -27.92633 -20.57286 -29.47939 -28.365646 -19.125214
        -25.893156 -27.821213 -16.090878 -22.812145 -26.283125 -11.444107
        -18.446198 -21.392979 -4.763337 0.017686844 -0.648119 0.086675644
        0.09493542 -0.635623 0.12835312 0.15036678 -0.60709 0.18487597
        0.1828413 -0.5695782 0.24635553 0.19545174 -0.52920103 0.30519724
        0.19321156 -0.4902568 0.3568352 0.1812954 -0.4552393 0.3993762
        0.1640768 -0.42519808 0.43276572 -10.923942 -1.0038663 3.0577302
        -11.282481 -1.0277084 3.1385972 -11.650266 -1.0522856 3.2195847
        -12.027546 -1.0776774 3.3003337 -12.414618 -1.103978 3.380439
        -12.811833 -1.1312969 3.4594424 -13.219604 -1.1597614 3.5368268
        -13.63841 -1.1895185 3.6120079 -14.068807 -1.2207372 3.684327
        -14.511435 -1.2536108 3.75304 -14.967023 -1.2883606 3.817309
        -15.436394 -1.3252383 3.876187 -15.920472 -1.3645301 3.9286108
        -16.42028 -1.4065621 3.9733841 -16.936954 -1.4517046 4.009166
        -17.471716 -1.5003808 4.034458 -18.025904 -1.553073 4.047591
        -18.600945 -1.6103357 4.046715 -19.198353 -1.6728071 4.029785
        -19.819735 -1.7412282 3.9945543 -20.46677 -1.8164623 3.9385622
        -21.141212 -1.8995248 3.8591247 -21.84489 -1.9916177 3.7533224
        -22.579685 -2.0941734 3.6179805 -23.347551 -2.208914 3.4496453
        -24.150515 -2.3379192 3.2445614 -24.990639 -2.4837253 2.9986074
        -25.870049 -2.6494389 2.7072492 -26.790903 -2.8388913 2.3654604
        -27.755367 -3.056831 1.9676212 -28.765593 -3.3091722 1.5073867
        -29.823658 -3.6033049 0.9775028 -30.931494 -3.9484835 0.36954337
        -32.0907 -4.3562818 -0.32648796 -33.302208 -4.84113 -1.1227235
        -34.565647 -5.4208646 -2.0342069 -35.87803 -6.1172404 -3.0798619
        -37.231617 -6.9562387 -4.2835016 -38.610336 -7.9678764 -5.6745234
        -39.984398 -9.185096 -7.287502 -41.302917 -10.641042 -9.15949
        -42.485023 -12.363834 -11.323174 -43.411194 -14.367825 -13.793749
        -43.918606 -16.640574 -16.547749 -43.807076 -19.126102 -19.493807
        -42.86376 -21.70752 -22.440485 -40.913155 -24.195877 -25.072819
        -37.889893 -26.335827 -26.957006 -33.91504 -27.838127 -27.592897
        -29.337814 -28.439623 -26.51803 -24.703209 -27.975193 -23.436298
        -20.634285 -26.431145 -18.31482 -17.667667 -23.951822 -11.39404
        -1.0484982 -1.9743252 -0.25437546 0.11647224 -0.63156605 0.0028972626
        0.18515205 -0.60315704 0.079610825 0.22351456 -0.5648279 0.16270971
        0.23639107 -0.5235276 0.24149776 0.23092365 -0.4840026 0.30986762
        0.21409702 -0.4488392 0.36554518 0.19152737 -0.41904402 0.4087857
        -10.92408 -0.8607623 3.0391166 -11.282581 -0.8799767 3.1187153
        -11.650391 -0.8997803 3.198363 -12.027771 -0.92023736 3.2777033
        -12.415034 -0.94142395 3.3563323 -12.812548 -0.9634288 3.433794
        -13.220738 -0.9863548 3.5095747 -13.640106 -1.0103215 3.5830936
        -14.071232 -1.0354658 3.653696 -14.514774 -1.0619451 3.7206423
        -14.971488 -1.0899392 3.7830985 -15.442225 -1.1196535 3.8401248
        -15.927938 -1.1513219 3.8906612 -16.429688 -1.1852111 3.9335167
        -16.948639 -1.2216249 3.9673553 -17.486067 -1.2609109 3.99068
        -18.043354 -1.3034678 4.0018244 -18.621984 -1.3497537 3.9989345
        -19.223547 -1.4002994 3.9799592 -19.849728 -1.4557223 3.9426372
        -20.502312 -1.5167463 3.8844838 -21.18318 -1.5842247 3.802777
        -21.894314 -1.6591738 3.6945386 -22.637804 -1.7428104 3.5565104
        -23.41585 -1.836606 3.3851178 -24.230795 -1.9423457 3.176435
        -25.08512 -2.0622208 2.9261072 -25.98147 -2.198933 2.6292758
        -26.922676 -2.3558357 2.2804682 -27.911787 -2.5371182 1.8734505
        -28.952082 -2.7480383 1.4010274 -30.047113 -2.995228 0.8547609
        -31.200695 -3.2870665 0.22455677 -32.41684 -3.634154 -0.5019279
        -33.699486 -4.0498595 -1.340141 -35.051918 -4.55095 -2.309805
        -36.47544 -5.1582203 -3.4363978 -37.96698 -5.8970118 -4.752809
        -39.51498 -6.7973657 -6.3007574 -41.09296 -7.8934255 -8.131135
        -42.650238 -9.221355 -10.301689 -44.10003 -10.814842 -12.869769
        -45.3066 -12.696902 -15.876944 -46.07559 -14.866789 -19.322412
        -46.156 -17.282022 -23.123857 -45.265217 -19.83792 -27.070545
        -43.148773 -22.351753 -30.783527 -39.67611 -24.5639 -33.71091
        -34.949646 -26.168758 -35.18967 -29.375212 -26.87987 -34.587437
        -23.632225 -26.512644 -31.489386 -18.519949 -25.048592 -25.846676
        -14.73163 -22.64519 -17.999313 -12.662437 -19.583818 -8.551151
        0.13471985 -0.5927324 -0.13065147 0.2179451 -0.56964874 -0.03219509
        0.26267815 -0.5358696 0.07440281 0.27588463 -0.49868393 0.1747551
        0.267107 -0.46294308 0.26101828 0.24529934 -0.43122792 0.3305918
        0.21738148 -0.40450644 0.38413328 -10.92152 -0.7130392 3.022156
        -11.279926 -0.7275136 3.1007195 -11.64769 -0.7424313 3.179281
        -12.025083 -0.75784105 3.2574847 -12.412428 -0.7738007 3.3349292
        -12.810107 -0.7903773 3.4111614 -13.218563 -0.8076495 3.48567
        -13.638309 -0.82570773 3.557878 -14.06994 -0.84465647 3.6271348
        -14.514136 -0.86461574 3.6927052 -14.971672 -0.8857224 3.7537599
        -15.443421 -0.90813327 3.8093634 -15.930362 -0.9320274 3.8584619
        -16.433578 -0.9576086 3.8998678 -16.95427 -0.9851103 3.9322505
        -17.493746 -1.0147995 3.9541166 -18.053427 -1.0469831 3.9638002
        -18.634851 -1.0820154 3.9594474 -19.239662 -1.1203068 3.9390018
        -19.869614 -1.162337 3.900191 -20.52658 -1.2086693 3.8405123
        -21.212547 -1.2599713 3.7572126 -21.92963 -1.3170394 3.6472664
        -22.680086 -1.3808331 3.5073438 -23.46634 -1.4525106 3.3337793
        -24.290995 -1.5334916 3.1224988 -25.156887 -1.625521 2.8689525
        -26.067114 -1.7307603 2.5680091 -27.025105 -1.851908 2.213818
        -28.034664 -1.9923517 1.7996206 -29.100088 -2.1563714 1.3174875
        -30.226236 -2.3493974 0.75794554 -31.41864 -2.5783463 0.10943997
        -32.683517 -2.852034 -0.6424566 -34.027626 -3.1816893 -1.5161656
        -35.457737 -3.581543 -2.5356524 -36.979374 -4.06948 -3.7324138
        -38.59427 -4.667632 -5.1478124 -40.295906 -5.4027677 -6.835299
        -42.062187 -6.306105 -8.86165 -43.84451 -7.411936 -11.305364
        -45.55307 -8.7541895 -14.249417 -47.03971 -10.359575 -17.764307
        -48.082832 -12.236014 -21.876434 -48.384068 -14.3557 -26.51919
        -47.591743 -16.63444 -31.470068 -45.36857 -18.913805 -36.29161
        -41.509834 -20.957844 -40.312645 -36.08848 -22.479042 -42.69678
        -29.559963 -23.200241 -42.623177 -22.739723 -22.9384 -39.54021
        -16.61219 -21.671825 -33.375427 -12.036745 -19.552008 -24.57503
        -9.496355 -16.851212 -13.936988 0.14410973 -0.51249695 -0.2546444
        0.24247551 -0.5013294 -0.13673306 0.29427338 -0.47897673 -0.008309364
        0.3085556 -0.4521985 0.11227798 0.29730988 -0.42556524 0.21533394
        0.27139187 -0.40155196 0.29790175 0.23897457 -0.3811412 0.36104697
        -10.918139 -0.56172115 3.0086837 -11.27644 -0.5713668 3.0864809
        -11.644132 -0.5813095 3.1642413 -12.021497 -0.59158236 3.2416105
        -12.408865 -0.6022244 3.3181891 -12.806625 -0.61328113 3.3935258
        -13.215234 -0.6248056 3.467112 -13.635214 -0.6368592 3.5383742
        -14.067171 -0.64951277 3.6066637 -14.511802 -0.66284746 3.67125
        -14.969893 -0.6769564 3.7313075 -15.442334 -0.69194597 3.7859046
        -15.930121 -0.70793766 3.8339915 -16.434362 -0.72507036 3.874385
        -16.956276 -0.74350303 3.9057577 -17.497198 -0.7634177 3.9266195
        -18.05858 -0.78502405 3.9353056 -18.641994 -0.808564 3.9299622
        -19.24913 -0.8343193 3.9085298 -19.881794 -0.8626188 3.868729
        -20.541924 -0.89384997 3.8080425 -21.231583 -0.92847276 3.723695
        -21.952993 -0.9670367 3.6126266 -22.708534 -1.0102061 3.4714556
        -23.500795 -1.0587827 3.2964425 -24.332594 -1.1137534 3.0834076
        -25.20703 -1.1763332 2.827653 -26.127554 -1.2480321 2.5238414
        -27.09805 -1.3307396 2.1658344 -28.122927 -1.4268366 1.746469
        -29.207272 -1.5393416 1.2572504 -30.356983 -1.6720996 0.68790525
        -31.578955 -1.8300314 0.025734007 -32.88119 -2.019443 -0.745329
        -34.272747 -2.2484145 -1.646064 -35.7633 -2.5272648 -2.7038293
        -37.36194 -2.8690715 -3.9549923 -39.074623 -3.2902026 -5.447847
        -40.899445 -3.8107252 -7.2455997 -42.818703 -4.454458 -9.42845
        -44.786736 -5.248227 -12.092823 -46.712936 -6.2196155 -15.344461
        -48.440903 -7.3921175 -19.280472 -49.728386 -8.776566 -23.953903
        -50.23857 -10.35792 -29.316446 -49.560787 -12.078392 -35.14096
        -47.283554 -13.821737 -40.943657 -43.131702 -15.408075 -45.94988
        -37.14438 -16.611538 -49.165295 -29.814482 -17.209045 -49.59182
        -22.07624 -17.050097 -46.54498 -15.081367 -16.11422 -39.9257
        -9.840603 -14.521856 -30.277594 -6.9158726 -12.490975 -18.57909
        -3.469223 -5.9089637 -3.4453163 0.25180244 -0.3999629 -0.21651268
        0.31150436 -0.3956871 -0.072678566 0.3285141 -0.3854823 0.06292915
        0.31674385 -0.37311196 0.17878866 0.2886753 -0.36084867 0.27141595
        0.2535391 -0.3498156 0.34208214 -10.915313 -0.40795517 3.000168
        -11.27353 -0.41271088 3.0774953 -11.641159 -0.41761705 3.1547651
        -12.018486 -0.42269078 3.231625 -12.405848 -0.42795217 3.3076763
        -12.803638 -0.4334246 3.382469 -13.212317 -0.43913543 3.4554963
        -13.632416 -0.44511634 3.5261867 -14.06455 -0.45140365 3.593894
        -14.509419 -0.4580392 3.6578891 -14.967824 -0.46507096 3.7173498
        -15.440661 -0.47255376 3.7713466 -15.928938 -0.48055017 3.8188322
        -16.433773 -0.4891318 3.8586266 -16.956402 -0.49838054 3.8894038
        -17.498173 -0.5083904 3.9096763 -18.06056 -0.51926947 3.9177814
        -18.645155 -0.53114265 3.9118633 -19.253674 -0.5441555 3.8898625
        -19.887957 -0.5584775 3.849494 -20.549976 -0.57430875 3.7882326
        -21.241856 -0.5918866 3.703289 -21.96587 -0.6114944 3.5915833
        -22.724485 -0.63347524 3.4497008 -23.520388 -0.65824103 3.2738576
        -24.356522 -0.68629986 3.059808 -25.236164 -0.7182767 2.8027632
        -26.162981 -0.7549478 2.4972575 -27.141146 -0.7972835 2.1369731
        -28.17545 -0.84650606 1.7144958 -29.271477 -0.90416515 1.220977
        -30.435793 -0.97223437 0.64563715 -31.67617 -1.0532405 -0.024944276
        -33.001766 -1.1504263 -0.80787545 -34.42313 -1.267952 -1.7254412
        -35.95186 -1.4111447 -2.8071833 -37.599422 -1.5867815 -4.092615
        -39.374645 -1.8033869 -5.6345615 -41.278843 -2.0714874 -7.5026455
        -43.297565 -2.4037044 -9.786024 -45.387615 -2.8144586 -12.593244
        -47.45865 -3.3189244 -16.04575 -49.349804 -3.9305887 -20.259375
        -50.80623 -4.6568327 -25.306738 -51.46627 -5.491817 -31.15416
        -50.879753 -6.4071255 -37.57431 -48.583694 -7.342723 -44.054337
        -44.252056 -8.203622 -49.749454 -37.896774 -8.867107 -53.554615
        -30.033112 -9.208688 -54.343956 -21.676123 -9.142971 -51.335045
        -14.094496 -8.656507 -44.407074 -8.405851 -7.8141155 -34.17223
        -5.2276764 -6.7347813 -21.73777 -4.562914 -5.549484 -8.30039
        0.24052429 -0.27648878 -0.2549801 0.30887032 -0.2943294 -0.10666275
        0.33083916 -0.30471253 0.03506756 0.32141685 -0.31010067 0.15696573
        0.2940855 -0.31238335 0.25478113 0.25880146 -0.31285822 0.32958698
        -10.913875 -0.25296223 2.9975486 -11.272053 -0.25279728 3.074719
        -11.639647 -0.252636 3.1518254 -12.016948 -0.2524792 3.2285151
        -12.404292 -0.252328 3.3043904 -12.802076 -0.2521836 3.3790016
        -13.210761 -0.25204733 3.4518428 -13.630884 -0.25192073 3.5223422
        -14.063058 -0.2518055 3.589855 -14.50799 -0.25170368 3.6536531
        -14.966478 -0.2516175 3.7129142 -15.439425 -0.25154948 3.7667105
        -15.927842 -0.25150248 3.8139951 -16.432852 -0.25147974 3.8535895
        -16.955692 -0.25148493 3.884168 -17.497719 -0.2515221 3.9042437
        -18.060413 -0.25159585 3.9121542 -18.64537 -0.2517112 3.9060447
        -19.254314 -0.25187373 3.8838537 -19.8891 -0.25208956 3.8432958
        -20.551714 -0.2523652 3.7818427 -21.244287 -0.2527077 3.696701
        -21.969124 -0.2531242 3.584783 -22.72871 -0.25362343 3.442665
        -23.525766 -0.25420928 3.266548 -24.363285 -0.2548884 3.0521643
        -25.244593 -0.25566447 2.7946973 -26.173431 -0.25653684 2.488638
        -27.154062 -0.2574993 2.127611 -28.191408 -0.25853723 1.7041221
        -29.291218 -0.2596213 1.2092054 -30.460278 -0.26070362 0.6319181
        -31.706654 -0.26170757 -0.04139653 -33.03988 -0.2625169 -0.8281845
        -34.47101 -0.26295978 -1.7512263 -36.012283 -0.2627921 -2.840774
        -37.675972 -0.2616727 -4.137389 -39.471874 -0.2591421 -5.6953793
        -41.402412 -0.25460705 -7.5865126 -43.454277 -0.24733858 -9.902935
        -45.585197 -0.23650825 -12.75728 -47.705032 -0.22129294 -16.276314
        -49.651653 -0.20103145 -20.582333 -51.166233 -0.17555003 -25.754814
        -51.879025 -0.14549917 -31.765541 -51.32661 -0.1127775 -38.38773
        -49.02832 -0.08100736 -45.099594 -44.64019 -0.056464434 -51.03322
        -38.164333 -0.04447359 -55.04551 -30.12244 -0.04728952 -55.966057
        -21.556047 -0.065629214 -52.97729 -13.773668 -0.09717563 -45.94939
        -7.9302654 -0.13612095 -35.516956 -4.6634083 -0.17488593 -22.831326
        -3.97476 -0.20744826 -9.136354 0.20727348 -0.14964503 -0.24244308
        0.28422546 -0.18895715 -0.10285473 0.31334114 -0.22011213 0.03398609
        0.30939293 -0.24378943 0.15350485 0.28604984 -0.26123446 0.25043404
        0.25357056 -0.27379033 0.3251807 -10.91411 -0.09799686 3.0011482
        -11.272295 -0.09291241 3.0784805 -11.63989 -0.08768481 3.1557555
        -12.01718 -0.082298815 3.2326198 -12.404504 -0.07673648 3.3086748
        -12.802254 -0.07097668 3.3834705 -13.210889 -0.06499484 3.4565005
        -13.630941 -0.058762398 3.5271924 -14.063026 -0.052246444 3.5949004
        -14.507844 -0.0454091 3.658895 -14.966193 -0.038206898 3.718354
        -15.43897 -0.03059019 3.7723477 -15.927182 -0.0225021 3.819829
        -16.431948 -0.013877505 3.859618 -16.9545 -0.0046417825 3.8903875
        -17.496191 0.0052908007 3.9106512 -18.05849 0.01601924 3.9187453
        -18.642988 0.027658317 3.9128153 -19.2514 0.04034216 3.8908
        -19.885565 0.05422827 3.8504162 -20.547455 0.06950336 3.789138
        -21.239187 0.08639067 3.7041774 -21.963041 0.10515904 3.5924544
        -22.721472 0.12613383 3.4505572 -23.517162 0.1497188 3.274702
        -24.353058 0.1764077 3.0606482 -25.23242 0.2068185 2.8036096
        -26.158915 0.24172655 2.4981272 -27.136694 0.28211296 2.1378927
        -28.17054 0.32922816 1.7155049 -29.26601 0.38467494 1.2221326
        -30.42965 0.45051897 0.64702404 -31.669197 0.52943236 -0.02320388
        -32.993744 0.62487847 -0.8056012 -34.413795 0.741344 -1.7223728
        -35.94085 0.8846214 -2.8029408 -37.586273 1.0621324 -4.0866537
        -39.358757 1.2832663 -5.6260805 -41.259445 1.5596644 -7.4905014
        -43.27372 1.9053006 -9.768574 -45.358276 2.3361166 -12.568186
        -47.422768 2.8687587 -16.009918 -49.306614 3.517848 -20.208597
        -50.755764 4.290939 -25.235857 -51.41009 5.180785 -31.05751
        -50.821644 6.155225 -37.446747 -48.53002 7.147272 -43.893433
        -44.21142 8.05115 -49.557854 -37.879093 8.734782 -53.34148
        -30.045343 9.069488 -54.12509 -21.718533 8.969214 -51.129795
        -14.160099 8.425014 -44.23255 -8.483244 7.512236 -34.03828
        -5.3054314 6.3633327 -21.645157 -4.6327667 5.119887 -8.243038
        0.15601921 -0.040548325 -0.18029022 0.24011993 -0.09564757 -0.061408997
        0.27753258 -0.14343786 0.06006527 0.28153038 -0.18255067 0.16895103
        0.26502323 -0.21325791 0.2589239 0.2380476 -0.2366625 0.3293173
        -10.915738 0.05568659 3.010644 -11.273974 0.06565749 3.088452
        -11.641597 0.07591795 3.1662226 -12.018889 0.08649921 3.2436008
        -12.40618 0.09743807 3.320187 -12.803861 0.10877777 3.3955302
        -13.212381 0.12056863 3.4691215 -13.63227 0.13286892 3.5403867
        -14.064131 0.14574586 3.6086779 -14.508657 0.15927675 3.6732633
        -14.966638 0.17355014 3.7333179 -15.43896 0.18866722 3.7879093
        -15.92662 0.20474376 3.835988 -16.430721 0.2219121 3.8763704
        -16.952486 0.24032378 3.9077287 -17.493248 0.26015255 3.9285727
        -18.054455 0.2815988 3.9372377 -18.637676 0.30489445 3.93187
        -19.244598 0.33030933 3.91041 -19.87703 0.3581602 3.8705788
        -20.5369 0.38882086 3.809859 -21.226274 0.42273667 3.7254772
        -21.947363 0.46044225 3.6143754 -22.702543 0.5025834 3.473174
        -23.494392 0.54995227 3.2981384 -24.325716 0.6035201 3.0850933
        -25.199604 0.664492 2.8293495 -26.119493 0.73437476 2.5255818
        -27.089237 0.81506306 2.167669 -28.11322 0.9089594 1.748474
        -29.196487 1.0191255 1.2595363 -30.344887 1.1494837 0.6906335
        -31.565243 1.3050773 0.029140353 -32.86547 1.4924021 -0.740903
        -34.254513 1.7198174 -1.6401261 -35.74188 1.9980361 -2.6956635
        -37.336464 2.3406816 -3.9435658 -39.043987 2.7648413 -5.4316783
        -40.862244 3.2914884 -7.222558 -42.773285 3.945518 -9.395521
        -44.731243 4.7549076 -12.045799 -46.6456 5.748272 -15.277659
        -48.360527 6.949746 -19.186451 -49.63529 8.369902 -23.823656
        -50.135826 9.992081 -29.1402 -49.455574 11.755049 -34.910294
        -47.187737 13.536896 -40.65488 -43.061165 15.150482 -45.608067
        -37.115936 16.363983 -48.787266 -29.839533 16.951857 -49.20547
        -22.154854 16.764297 -46.183647 -15.201221 15.784899 -39.618706
        -9.981754 14.141749 -30.04165 -7.0581417 12.062059 -18.415564
        -3.6203194 5.5152373 -3.2974873 0.09511566 0.034401417 -0.08089447
        0.1832695 -0.02750969 0.009759903 0.22844124 -0.08467388 0.10853577
        0.24142647 -0.1337192 0.20055366 0.23349571 -0.1737163 0.2787087
        0.21391392 -0.20519972 0.3411951 -10.917927 0.20686758 3.0250978
        -11.276237 0.2216615 3.103678 -11.643897 0.23689085 3.1822548
        -12.021181 0.25260258 3.2604723 -12.408414 0.2688522 3.3379285
        -12.805971 0.28570467 3.4141707 -13.214298 0.30323553 3.488687
        -13.633909 0.3215323 3.5609004 -14.065394 0.34069586 3.6301596
        -14.509437 0.360842 3.6957293 -14.966807 0.38210326 3.7567801
        -15.438379 0.40463126 3.812376 -15.925129 0.42859888 3.8614624
        -16.42814 0.45420355 3.9028528 -16.948612 0.48167124 3.9352145
        -17.48785 0.5112605 3.957055 -18.047272 0.54326874 3.9667082
        -18.62841 0.57803965 3.9623194 -19.232908 0.6159722 3.9418335
        -19.862518 0.65753305 3.9029777 -20.519104 0.7032717 3.8432508
        -21.204649 0.75384045 3.7599006 -21.921263 0.81001943 3.6499052
        -22.671186 0.8727493 3.5099373 -23.456835 0.94317603 3.3363378
        -24.2808 1.0227015 3.1250396 -25.145899 1.113057 2.8715062
        -26.055202 1.2163963 2.570622 -27.012104 1.3354154 2.2165618
        -28.020378 1.4735132 1.8026004 -29.084259 1.6349978 1.3208581