# vtk DataFile Version 3.0
T01 + IGRF magnetic field in GSW coordinates
ASCII
DATASET STRUCTURED_GRID
DIMENSIONS     61    21    21
POINTS    26901 float
     -50.000000     -10.000000     -10.000000
     -49.000000     -10.000000     -10.000000
     -48.000000     -10.000000     -10.000000
     -47.000000     -10.000000     -10.000000
     -46.000000     -10.000000     -10.000000
     -45.000000     -10.000000     -10.000000
     -44.000000     -10.000000     -10.000000
     -43.000000     -10.000000     -10.000000
     -42.000000     -10.000000     -10.000000
     -41.000000     -10.000000     -10.000000
     -40.000000     -10.000000     -10.000000
     -39.000000     -10.000000     -10.000000
     -38.000000     -10.000000     -10.000000
     -37.000000     -10.000000     -10.000000
     -36.000000     -10.000000     -10.000000
     -35.000000     -10.000000     -10.000000
     -34.000000     -10.000000     -10.000000
     -33.000000     -10.000000     -10.000000
     -32.000000     -10.000000     -10.000000
     -31.000000     -10.000000     -10.000000
     -30.000000     -10.000000     -10.000000
     -29.000000     -10.000000     -10.000000
     -28.000000     -10.000000     -10.000000
     -27.000000     -10.000000     -10.000000
     -26.000000     -10.000000     -10.000000
     -25.000000     -10.000000     -10.000000
     -24.000000     -10.000000     -10.000000
     -23.000000     -10.000000     -10.000000
     -22.000000     -10.000000     -10.000000
     -21.000000     -10.000000     -10.000000
     -20.000000     -10.000000     -10.000000
     -19.000000     -10.000000     -10.000000
     -18.000000     -10.000000     -10.000000
     -17.000000     -10.000000     -10.000000
     -16.000000     -10.000000     -10.000000
     -15.000000     -10.000000     -10.000000
     -14.000000     -10.000000     -10.000000
     -13.000000     -10.000000     -10.000000
     -12.000000     -10.000000     -10.000000
     -11.000000     -10.000000     -10.000000
     -10.000000     -10.000000     -10.000000
      -9.000000     -10.000000     -10.000000
      -8.000000     -10.000000     -10.000000
      -7.000000     -10.000000     -10.000000
      -6.000000     -10.000000     -10.000000
      -5.000000     -10.000000     -10.000000
      -4.000000     -10.000000     -10.000000
      -3.000000     -10.000000     -10.000000
      -2.000000     -10.000000     -10.000000
      -1.000000     -10.000000     -10.000000
       0.000000     -10.000000     -10.000000
       1.000000     -10.000000     -10.000000
       2.000000     -10.000000     -10.000000
       3.000000     -10.000000     -10.000000
       4.000000     -10.000000     -10.000000
       5.000000     -10.000000     -10.000000
       6.000000     -10.000000     -10.000000
       7.000000     -10.000000     -10.000000
       8.000000     -10.000000     -10.000000
       9.000000     -10.000000     -10.000000
      10.000000     -10.000000     -10.000000
     -50.000000      -9.000000     -10.000000
     -49.000000      -9.000000     -10.000000
     -48.000000      -9.000000     -10.000000
     -47.000000      -9.000000     -10.000000
     -46.000000      -9.000000     -10.000000
     -45.000000      -9.000000     -10.000000
     -44.000000      -9.000000     -10.000000
     -43.000000      -9.000000     -10.000000
     -42.000000      -9.000000     -10.000000
     -41.000000      -9.000000     -10.000000
     -40.000000      -9.000000     -10.000000
     -39.000000      -9.000000     -10.000000
     -38.000000      -9.000000     -10.000000
     -37.000000      -9.000000     -10.000000
     -36.000000      -9.000000     -10.000000
     -35.000000      -9.000000     -10.000000
     -34.000000      -9.000000     -10.000000
     -33.000000      -9.000000     -10.000000
     -32.000000      -9.000000     -10.000000
     -31.000000      -9.000000     -10.000000
     -30.000000      -9.000000     -10.000000
     -29.000000      -9.000000     -10.000000
     -28.000000      -9.000000     -10.000000
     -27.000000      -9.000000     -10.000000
     -26.000000      -9.000000     -10.000000
     -25.000000      -9.000000     -10.000000
     -24.000000      -9.000000     -10.000000
     -23.000000      -9.000000     -10.000000
     -22.000000      -9.000000     -10.000000
     -21.000000      -9.000000     -10.000000
     -20.000000      -9.000000     -10.000000
     -19.000000      -9.000000     -10.000000
     -18.000000      -9.000000     -10.000000
     -17.000000      -9.000000     -10.000000
     -16.000000      -9.000000     -10.000000
     -15.000000      -9.000000     -10.000000
     -14.000000      -9.000000     -10.000000
     -13.000000      -9.000000     -10.000000
     -12.000000      -9.000000     -10.000000
     -11.000000      -9.000000     -10.000000
     -10.000000      -9.000000     -10.000000
      -9.000000      -9.000000     -10.000000
      -8.000000      -9.000000     -10.000000
      -7.000000      -9.000000     -10.000000
      -6.000000      -9.000000     -10.000000
      -5.000000      -9.000000     -10.000000
      -4.000000      -9.000000     -10.000000
      -3.000000      -9.000000     -10.000000
      -2.000000      -9.000000     -10.000000
      -1.000000      -9.000000     -10.000000
       0.000000      -9.000000     -10.000000
       1.000000      -9.000000     -10.000000
       2.000000      -9.000000     -10.000000
       3.000000      -9.000000     -10.000000
       4.000000      -9.000000     -10.000000
       5.000000      -9.000000     -10.000000
       6.000000      -9.000000     -10.000000
       7.000000      -9.000000     -10.000000
       8.000000      -9.000000     -10.000000
       9.000000      -9.000000     -10.000000
      10.000000      -9.000000     -10.000000
     -50.000000      -8.000000     -10.000000
     -49.000000      -8.000000     -10.000000
     -48.000000      -8.000000     -10.000000
     -47.000000      -8.000000     -10.000000
     -46.000000      -8.000000     -10.000000
     -45.000000      -8.000000     -10.000000
     -44.000000      -8.000000     -10.000000
     -43.000000      -8.000000     -10.000000
     -42.000000      -8.000000     -10.000000
     -41.000000      -8.000000     -10.000000
     -40.000000      -8.000000     -10.000000
     -39.000000      -8.000000     -10.000000
     -38.000000      -8.000000     -10.000000
     -37.000000      -8.000000     -10.000000
     -36.000000      -8.000000     -10.000000
     -35.000000      -8.000000     -10.000000
     -34.000000      -8.000000     -10.000000
     -33.000000      -8.000000     -10.000000
     -32.000000      -8.000000     -10.000000
     -31.000000      -8.000000     -10.000000
     -30.000000      -8.000000     -10.000000
     -29.000000      -8.000000     -10.000000
     -28.000000      -8.000000     -10.000000
     -27.000000      -8.000000     -10.000000
     -26.000000      -8.000000     -10.000000
     -25.000000      -8.000000     -10.000000
     -24.000000      -8.000000     -10.000000
     -23.000000      -8.000000     -10.000000
     -22.000000      -8.000000     -10.000000
     -21.000000      -8.000000     -10.000000
     -20.000000      -8.000000     -10.000000
     -19.000000      -8.000000     -10.000000
     -18.000000      -8.000000     -10.000000
     -17.000000      -8.000000     -10.000000
     -16.000000      -8.000000     -10.000000
     -15.000000      -8.000000     -10.000000
     -14.000000      -8.000000     -10.000000
     -13.000000      -8.000000     -10.000000
     -12.000000      -8.000000     -10.000000
     -11.000000      -8.000000     -10.000000
     -10.000000      -8.000000     -10.000000
      -9.000000      -8.000000     -10.000000
      -8.000000      -8.000000     -10.000000
      -7.000000      -8.000000     -10.000000
      -6.000000      -8.000000     -10.000000
      -5.000000      -8.000000     -10.000000
      -4.000000      -8.000000     -10.000000
      -3.000000      -8.000000     -10.000000
      -2.000000      -8.000000     -10.000000
      -1.000000      -8.000000     -10.000000
       0.000000      -8.000000     -10.000000
       1.000000      -8.000000     -10.000000
       2.000000      -8.000000     -10.000000
       3.000000      -8.000000     -10.000000
       4.000000      -8.000000     -10.000000
       5.000000      -8.000000     -10.000000
       6.000000      -8.000000     -10.000000
       7.000000      -8.000000     -10.000000
       8.000000      -8.000000     -10.000000
       9.000000      -8.000000     -10.000000
      10.000000      -8.000000     -10.000000
     -50.000000      -7.000000     -10.000000
     -49.000000      -7.000000     -10.000000
     -48.000000      -7.000000     -10.000000
     -47.000000      -7.000000     -10.000000
     -46.000000      -7.000000     -10.000000
     -45.000000      -7.000000     -10.000000
     -44.000000      -7.000000     -10.000000
     -43.000000      -7.000000     -10.000000
     -42.000000      -7.000000     -10.000000
     -41.000000      -7.000000     -10.000000
     -40.000000      -7.000000     -10.000000
     -39.000000      -7.000000     -10.000000
     -38.000000      -7.000000     -10.000000
     -37.000000      -7.000000     -10.000000
     -36.000000      -7.000000     -10.000000
     -35.000000      -7.000000     -10.000000
     -34.000000      -7.000000     -10.000000
     -33.000000      -7.000000     -10.000000
     -32.000000      -7.000000     -10.000000
     -31.000000      -7.000000     -10.000000
     -30.000000      -7.000000     -10.000000
     -29.000000      -7.000000     -10.000000
     -28.000000      -7.000000     -10.000000
     -27.000000      -7.000000     -10.000000
     -26.000000      -7.000000     -10.000000
     -25.000000      -7.000000     -10.000000
[...]
POINT_DATA    26901
VECTORS B_total float
  -9.7263718E+00  -1.3485729E+00   3.2264934E+00
  -1.0056909E+01  -1.3855971E+00   3.3126519E+00
  -1.0396685E+01  -1.4241952E+00   3.3994493E+00
  -1.0745949E+01  -1.4645492E+00   3.4866118E+00
  -1.1104995E+01  -1.5068692E+00   3.5738294E+00
  -1.1474158E+01  -1.5513959E+00   3.6607521E+00
  -1.1853832E+01  -1.5984045E+00   3.7469869E+00
  -1.2244468E+01  -1.6482083E+00   3.8320882E+00
  -1.2646585E+01  -1.7011629E+00   3.9155531E+00
  -1.3060781E+01  -1.7576714E+00   3.9968126E+00
  -1.3487728E+01  -1.8181883E+00   4.0752206E+00
  -1.3928193E+01  -1.8832263E+00   4.1500454E+00
  -1.4383027E+01  -1.9533608E+00   4.2204571E+00
  -1.4853175E+01  -2.0292377E+00   4.2855124E+00
  -1.5339676E+01  -2.1115806E+00   4.3441482E+00
  -1.5843651E+01  -2.2011983E+00   4.3951612E+00
  -1.6366304E+01  -2.2989948E+00   4.4372005E+00
  -1.6908907E+01  -2.4059801E+00   4.4687562E+00
  -1.7472780E+01  -2.5232835E+00   4.4881496E+00
  -1.8059284E+01  -2.6521671E+00   4.4935298E+00
  -1.8669783E+01  -2.7940464E+00   4.4828739E+00
  -1.9305626E+01  -2.9505103E+00   4.4539890E+00
  -1.9968113E+01  -3.1233475E+00   4.4045191E+00
  -2.0658463E+01  -3.3145821E+00   4.3319592E+00
  -2.1377773E+01  -3.5265090E+00   4.2336650E+00
  -2.2126970E+01  -3.7617433E+00   4.1068687E+00
  -2.2906755E+01  -4.0232697E+00   3.9487047E+00
  -2.3717520E+01  -4.3145113E+00   3.7562084E+00
  -2.4559233E+01  -4.6393957E+00   3.5263572E+00
  -2.5431293E+01  -5.0024347E+00   3.2561152E+00
  -2.6332346E+01  -5.4088044E+00   2.9425128E+00
  -2.7260046E+01  -5.8644347E+00   2.5827873E+00
  -2.8210779E+01  -6.3760881E+00   2.1745872E+00
  -2.9179390E+01  -6.9514279E+00   1.7162642E+00
  -3.0158892E+01  -7.5990553E+00   1.2072353E+00
  -3.1140203E+01  -8.3284502E+00   6.4840496E-01
  -3.2111908E+01  -9.1497946E+00   4.2597175E-02
  -3.3060020E+01  -1.0073534E+01  -6.0503078E-01
  -3.3967758E+01  -1.1109568E+01  -1.2866194E+00
  -3.4815254E+01  -1.2265888E+01  -1.9912374E+00
  -3.5579269E+01  -1.3546497E+01  -2.7044013E+00
  -3.6233162E+01  -1.4948523E+01  -3.4072499E+00
  -3.6747398E+01  -1.6458527E+01  -4.0751543E+00
  -3.7091541E+01  -1.8048550E+01  -4.6756973E+00
  -3.7238384E+01  -1.9672489E+01  -5.1663027E+00
  -3.7170895E+01  -2.1264332E+01  -5.4924831E+00
  -3.6891560E+01  -2.2739468E+01  -5.5879188E+00
  -3.6432583E+01  -2.4000601E+01  -5.3778343E+00
  -3.5863796E+01  -2.4948277E+01  -4.7860827E+00
  -3.5294811E+01  -2.5494560E+01  -3.7448797E+00
  -9.7274184E-02  -4.1772175E-01   4.1817045E-01
  -8.2189322E-02  -4.4257545E-01   4.0715933E-01
  -6.1265945E-02  -4.6171474E-01   4.0009069E-01
  -3.7010193E-02  -4.7354317E-01   3.9777279E-01
  -1.2217999E-02  -4.7761440E-01   4.0022087E-01
   1.0639668E-02  -4.7455502E-01   4.0674186E-01
   2.9822350E-02  -4.6574879E-01   4.1621244E-01
   4.4456005E-02  -4.5291615E-01   4.2736685E-01
   5.4423332E-02  -4.3776512E-01   4.3905661E-01
   6.0166836E-02  -4.2175484E-01   4.5038158E-01
   6.2407017E-02  -4.0597296E-01   4.6074605E-01
  -9.7676020E+00  -1.2561567E+00   3.2203085E+00
  -1.0099869E+01  -1.2901864E+00   3.3048747E+00
  -1.0441560E+01  -1.3256789E+00   3.3899393E+00
  -1.0792954E+01  -1.3628037E+00   3.4752245E+00
  -1.1154376E+01  -1.4017553E+00   3.5604165E+00
  -1.1526194E+01  -1.4427577E+00   3.6451621E+00
  -1.1908840E+01  -1.4860661E+00   3.7290633E+00
  -1.2302808E+01  -1.5319721E+00   3.8116708E+00
  -1.2708665E+01  -1.5808066E+00   3.8924763E+00
  -1.3127056E+01  -1.6329451E+00   3.9709041E+00
  -1.3558719E+01  -1.6888115E+00   4.0463009E+00
  -1.4004476E+01  -1.7488850E+00   4.1179237E+00
  -1.4465252E+01  -1.8137046E+00   4.1849298E+00
  -1.4942068E+01  -1.8838766E+00   4.2463613E+00
  -1.5436044E+01  -1.9600822E+00   4.3011327E+00
  -1.5948400E+01  -2.0430856E+00   4.3480153E+00
  -1.6480438E+01  -2.1337447E+00   4.3856258E+00
  -1.7033548E+01  -2.2330220E+00   4.4124131E+00
  -1.7609184E+01  -2.3419995E+00   4.4266481E+00
  -1.8208847E+01  -2.4618943E+00   4.4264183E+00
  -1.8834072E+01  -2.5940795E+00   4.4096212E+00
  -1.9486399E+01  -2.7401104E+00   4.3739681E+00
  -2.0167353E+01  -2.9017522E+00   4.3169818E+00
  -2.0878405E+01  -3.0810206E+00   4.2360048E+00
  -2.1620960E+01  -3.2802255E+00   4.1282020E+00
  -2.2396301E+01  -3.5020292E+00   3.9905620E+00
  -2.3205540E+01  -3.7495065E+00   3.8199134E+00
  -2.4049551E+01  -4.0262318E+00   3.6129055E+00
  -2.4928864E+01  -4.3363657E+00   3.3660295E+00
  -2.5843533E+01  -4.6847649E+00   3.0756397E+00
  -2.6792946E+01  -5.0771036E+00   2.7380047E+00
  -2.7775606E+01  -5.5200148E+00   2.3494120E+00
  -2.8788858E+01  -6.0212345E+00   1.9063238E+00
  -2.9828596E+01  -6.5897646E+00   1.4056011E+00
  -3.0888929E+01  -7.2359915E+00   8.4478235E-01
  -3.1961834E+01  -7.9717641E+00   2.2239289E-01
  -3.3036713E+01  -8.8103085E+00  -4.6173969E-01
  -3.4099869E+01  -9.7658997E+00  -1.2061888E+00
  -3.5133743E+01  -1.0853054E+01  -2.0075903E+00
  -3.6115913E+01  -1.2085067E+01  -2.8601785E+00
  -3.7017906E+01  -1.3471594E+01  -3.7548873E+00
  -3.7804085E+01  -1.5015045E+01  -4.6776972E+00
  -3.8431412E+01  -1.6705833E+01  -5.6068382E+00
  -3.8851089E+01  -1.8516674E+01  -6.5087585E+00
  -3.9013676E+01  -2.0397038E+01  -7.3334074E+00
  -3.8878723E+01  -2.2269424E+01  -8.0102892E+00
  -3.8428661E+01  -2.4029625E+01  -8.4474735E+00
  -3.7684929E+01  -2.5553436E+01  -8.5361214E+00
  -3.6721367E+01  -2.6710674E+01  -8.1617050E+00
  -3.5669060E+01  -2.7384995E+01  -7.2208471E+00
  -3.4707775E+01  -2.7494629E+01  -5.6391945E+00
  -1.0792017E-01  -4.5972252E-01   3.6216211E-01
  -7.9227448E-02  -4.8486328E-01   3.5079098E-01
  -4.5983315E-02  -5.0022697E-01   3.4717369E-01
  -1.2416363E-02  -5.0526142E-01   3.5122681E-01
   1.7886162E-02  -5.0097561E-01   3.6165357E-01
   4.2550087E-02  -4.8941517E-01   3.7650228E-01
   6.0568810E-02  -4.7301865E-01   3.9366174E-01
   7.2066307E-02  -4.5409393E-01   4.1130984E-01
   7.7889442E-02  -4.3451595E-01   4.2810157E-01
   7.9232693E-02  -4.1561937E-01   4.4320247E-01
  -9.8013849E+00  -1.1587392E+00   3.2127113E+00
  -1.0135128E+01  -1.1895355E+00   3.2958207E+00
  -1.0478464E+01  -1.2216698E+00   3.3793070E+00
  -1.0831698E+01  -1.2552967E+00   3.4628894E+00
  -1.1195183E+01  -1.2905947E+00   3.5462511E+00
  -1.1569319E+01  -1.3277682E+00   3.6290367E+00
  -1.1954573E+01  -1.3670511E+00   3.7108445E+00
  -1.2351479E+01  -1.4087106E+00   3.7912226E+00
  -1.2760646E+01  -1.4530500E+00   3.8696585E+00
  -1.3182772E+01  -1.5004139E+00   3.9455709E+00
  -1.3618641E+01  -1.5511923E+00   4.0183005E+00
  -1.4069139E+01  -1.6058259E+00   4.0870967E+00
  -1.4535256E+01  -1.6648121E+00   4.1511049E+00
  -1.5018086E+01  -1.7287115E+00   4.2093530E+00
  -1.5518830E+01  -1.7981559E+00   4.2607379E+00
  -1.6038794E+01  -1.8738561E+00   4.3040075E+00
  -1.6579388E+01  -1.9566125E+00   4.3377481E+00
  -1.7142111E+01  -2.0473280E+00   4.3603725E+00
  -1.7728542E+01  -2.1470218E+00   4.3701048E+00
  -1.8340338E+01  -2.2568471E+00   4.3649731E+00
  -1.8979198E+01  -2.3781130E+00   4.3428011E+00
  -1.9646862E+01  -2.5123122E+00   4.3012066E+00
  -2.0345079E+01  -2.6611531E+00   4.2375941E+00
  -2.1075605E+01  -2.8266015E+00   4.1491561E+00
  -2.1840162E+01  -3.0109339E+00   4.0328636E+00
  -2.2640413E+01  -3.2167928E+00   3.8854704E+00
  -2.3477934E+01  -3.4472735E+00   3.7034833E+00
  -2.4354139E+01  -3.7060094E+00   3.4831550E+00
  -2.5270206E+01  -3.9972870E+00   3.2204680E+00
  -2.6226961E+01  -4.3261809E+00   2.9111269E+00
  -2.7224695E+01  -4.6987143E+00   2.5505753E+00
  -2.8262989E+01  -5.1220493E+00   2.1340444E+00
  -2.9340441E+01  -5.6047120E+00   1.6566445E+00
  -3.0454393E+01  -6.1568336E+00   1.1134899E+00
  -3.1600574E+01  -6.7903996E+00   4.9985263E-01
  -3.2772655E+01  -7.5194583E+00  -1.8869665E-01
  -3.3961670E+01  -8.3602142E+00  -9.5616806E-01
  -3.5155090E+01  -9.3308411E+00  -1.8060424E+00
  -3.6335499E+01  -1.0450817E+01  -2.7410867E+00
  -3.7478737E+01  -1.1739477E+01  -3.7628431E+00
  -3.8551468E+01  -1.3213400E+01  -4.8703642E+00
  -3.9508625E+01  -1.4882211E+01  -6.0576181E+00
  -4.0291706E+01  -1.6742638E+01  -7.3089237E+00
  -4.0829613E+01  -1.8770954E+01  -8.5922432E+00
  -4.1044273E+01  -2.0914803E+01  -9.8509445E+00
  -4.0863163E+01  -2.3086502E+01  -1.0996140E+01
  -4.0239193E+01  -2.5161236E+01  -1.1903259E+01
  -3.9175423E+01  -2.6983734E+01  -1.2417112E+01
  -3.7747471E+01  -2.8386061E+01  -1.2368557E+01
  -3.6113823E+01  -2.9215094E+01  -1.1601776E+01
  -3.4505257E+01  -2.9363319E+01  -1.0005327E+01
  -3.3191536E+01  -2.8792204E+01  -7.5355377E+00
  -1.0272121E-01  -5.0300407E-01   2.8571033E-01
  -5.7581902E-02  -5.2306366E-01   2.8005791E-01
  -1.2528419E-02  -5.2966404E-01   2.8642464E-01
   2.7258873E-02  -5.2434635E-01   3.0252743E-01
   5.8626175E-02  -5.1002693E-01   3.2504606E-01
   8.0498695E-02  -4.9000740E-01   3.5061455E-01
   9.3441010E-02  -4.6732330E-01   3.7642431E-01
   9.8938942E-02  -4.4430304E-01   4.0053338E-01
   9.8820210E-02  -4.2250109E-01   4.2183822E-01
  -9.8285046E+00  -1.0568943E+00   3.2038302E+00
  -1.0163487E+01  -1.0842485E+00   3.2856174E+00
  -1.0508217E+01  -1.1128030E+00   3.3676782E+00
  -1.0863019E+01  -1.1426967E+00   3.4497290E+00
  -1.1228271E+01  -1.1740897E+00   3.5314515E+00
  -1.1604405E+01  -1.2071660E+00   3.6124883E+00
  -1.1991919E+01  -1.2421359E+00   3.6924365E+00
  -1.2391380E+01  -1.2792392E+00   3.7708409E+00
  -1.2803440E+01  -1.3187497E+00   3.8471863E+00
  -1.3228840E+01  -1.3609773E+00   3.9208879E+00
  -1.3668412E+01  -1.4062744E+00   3.9912815E+00
  -1.4123101E+01  -1.4550390E+00   4.0576086E+00
  -1.4593952E+01  -1.5077215E+00   4.1190066E+00
  -1.5082129E+01  -1.5648308E+00   4.1744914E+00
  -1.5588910E+01  -1.6269412E+00   4.2229433E+00
  -1.6115686E+01  -1.6947008E+00   4.2630897E+00
  -1.6663961E+01  -1.7688431E+00   4.2934923E+00
  -1.7235344E+01  -1.8501968E+00   4.3125286E+00
  -1.7831541E+01  -1.9397027E+00   4.3183799E+00
  -1.8454348E+01  -2.0384305E+00   4.3090215E+00
  -1.9105633E+01  -2.1476007E+00   4.2822065E+00
  -1.9787334E+01  -2.2686138E+00   4.2354650E+00
  -2.0501436E+01  -2.4030838E+00   4.1660891E+00
  -2.1249969E+01  -2.5528824E+00   4.0711274E+00
  -2.2034985E+01  -2.7201929E+00   3.9473629E+00
  -2.2858557E+01  -2.9075727E+00   3.7913115E+00
  -2.3722734E+01  -3.1180451E+00   3.5991678E+00
  -2.4629524E+01  -3.3551967E+00   3.3667846E+00
  -2.5580818E+01  -3.6233065E+00   3.0896249E+00
  -2.6578287E+01  -3.9275012E+00   2.7627230E+00
  -2.7623280E+01  -4.2739539E+00   2.3806543E+00
  -2.8716637E+01  -4.6701164E+00   1.9375172E+00
  -2.9858486E+01  -5.1250091E+00   1.4269360E+00
  -3.1047985E+01  -5.6495533E+00   8.4206456E-01
  -3.2282993E+01  -6.2569480E+00   1.7555630E-01
  -3.3559563E+01  -6.9630289E+00  -5.8050817E-01
  -3.4871201E+01  -7.7865577E+00  -1.4347897E+00
  -3.6207619E+01  -8.7492723E+00  -2.3968940E+00
  -3.7552811E+01  -9.8754625E+00  -3.4774604E+00
  -3.8882114E+01  -1.1190694E+01  -4.6877704E+00
  -4.0158379E+01  -1.2719200E+01  -6.0382423E+00
  -4.1327396E+01  -1.4479342E+01  -7.5348797E+00
  -4.2314083E+01  -1.6476627E+01  -9.1727104E+00
  -4.3021473E+01  -1.8694221E+01  -1.0925562E+01
  -4.3336052E+01  -2.1081657E+01  -1.2732855E+01
  -4.3143013E+01  -2.3544390E+01  -1.4486123E+01
  -4.2353443E+01  -2.5938299E+01  -1.6020592E+01
  -4.0940868E+01  -2.8075260E+01  -1.7119429E+01
  -3.8977558E+01  -2.9744322E+01  -1.7536989E+01
  -3.6654736E+01  -3.0748201E+01  -1.7041130E+01
  -3.4271149E+01  -3.0946815E+01  -1.5464787E+01
  -3.2184975E+01  -3.0292095E+01  -1.2747178E+01
  -3.0741768E+01  -2.8838976E+01  -8.9457245E+00
  -7.2895050E-02  -5.3599739E-01   1.9508648E-01
  -1.3203621E-02  -5.4528427E-01   2.0443916E-01
   3.8393974E-02  -5.3975105E-01   2.2825432E-01
   7.7774048E-02  -5.2332783E-01   2.6116848E-01
   1.0395622E-01  -5.0035954E-01   2.9791784E-01
   1.1817837E-01  -4.7461033E-01   3.3437347E-01
   1.2286377E-01  -4.4888544E-01   3.6782026E-01
   1.2068844E-01  -4.2492771E-01   3.9687079E-01
  -9.8498106E+00  -9.5118499E-01   3.1941154E+00
  -1.0185822E+01  -9.7491527E-01   3.2747211E+00
  -1.0531713E+01  -9.9969637E-01   3.3555133E+00
  -1.0887831E+01  -1.0256506E+00   3.4362075E+00
  -1.1254575E+01  -1.0529183E+00   3.5164843E+00
  -1.1632401E+01  -1.0816611E+00   3.5959847E+00
  -1.2021840E+01  -1.1120634E+00   3.6743050E+00
  -1.2423489E+01  -1.1443363E+00   3.7509880E+00
  -1.2838034E+01  -1.1787202E+00   3.8255169E+00
  -1.3266255E+01  -1.2154883E+00   3.8973041E+00
  -1.3709034E+01  -1.2549508E+00   3.9656801E+00
  -1.4167358E+01  -1.2974591E+00   4.0298834E+00
  -1.4642332E+01  -1.3434113E+00   4.0890417E+00
  -1.5135180E+01  -1.3932581E+00   4.1421623E+00
  -1.5647247E+01  -1.4475091E+00   4.1881108E+00
  -1.6180006E+01  -1.5067414E+00   4.2255988E+00
  -1.6735048E+01  -1.5716091E+00   4.2531629E+00
  -1.7314085E+01  -1.6428547E+00   4.2691517E+00
  -1.7918940E+01  -1.7213237E+00   4.2717090E+00
  -1.8551542E+01  -1.8079820E+00   4.2587585E+00
  -1.9213924E+01  -1.9039369E+00   4.2279930E+00
  -1.9908213E+01  -2.0104659E+00   4.1768594E+00
  -2.0636618E+01  -2.1290495E+00   4.1025462E+00
  -2.1401442E+01  -2.2614162E+00   4.0019655E+00
  -2.2205070E+01  -2.4095962E+00   3.8717246E+00
  -2.3049974E+01  -2.5759840E+00   3.7081099E+00
  -2.3938700E+01  -2.7634361E+00   3.5070171E+00
  -2.4873850E+01  -2.9753690E+00   3.2639079E+00
  -2.5858055E+01  -3.2158990E+00   2.9737344E+00
  -2.6893911E+01  -3.4900126E+00   2.6308625E+00
  -2.7983889E+01  -3.8037832E+00   2.2289844E+00
  -2.9130230E+01  -4.1646409E+00   1.7610304E+00
  -3.0334799E+01  -4.5817122E+00   1.2190617E+00
  -3.1598877E+01  -5.0662270E+00   5.9412032E-01
  -3.2922878E+01  -5.6319995E+00  -1.2400937E-01
  -3.4305859E+01  -6.2959437E+00  -9.4716781E-01
  -3.5744644E+01  -7.0785656E+00  -1.8893619E+00
  -3.7232307E+01  -8.0042782E+00  -2.9674010E+00
  -3.8755653E+01  -9.1013069E+00  -4.2014580E+00
  -4.0291183E+01  -1.0400737E+01  -5.6150150E+00
  -4.1799591E+01  -1.1934179E+01  -7.2333469E+00
  -4.3218819E+01  -1.3729191E+01  -9.0791931E+00
  -4.4457169E+01  -1.5801682E+01  -1.1164040E+01
  -4.5389374E+01  -1.8144718E+01  -1.3473725E+01
  -4.5860279E+01  -2.0714239E+01  -1.5948679E+01
  -4.5702065E+01  -2.3414078E+01  -1.8461622E+01
  -4.4769547E+01  -2.6085690E+01  -2.0800831E+01
  -4.2992176E+01  -2.8510942E+01  -2.2670795E+01
  -4.0430286E+01  -3.0435440E+01  -2.3722399E+01
  -3.7311520E+01  -3.1614450E+01  -2.3616095E+01
  -3.4020973E+01  -3.1871119E+01  -2.2103964E+01
  -3.1033777E+01  -3.1145350E+01  -1.9099003E+01
  -2.8808556E+01  -2.9510548E+01  -1.4697663E+01
  -8.9818468E+00  -9.1060152E+00  -2.8814297E+00
  -1.5766144E-02  -5.4466820E-01   1.0661411E-01
   5.0095558E-02  -5.4068184E-01   1.4005661E-01
   9.8838806E-02  -5.2390957E-01   1.8605232E-01
   1.2974834E-01  -4.9971485E-01   2.3675489E-01
   1.4511299E-01  -4.7260571E-01   2.8625107E-01
   1.4854527E-01  -4.4576025E-01   3.3092690E-01
   1.4380264E-01  -4.2107248E-01   3.6911130E-01
  -9.8661528E+00  -8.4218204E-01   3.1842334E+00
  -1.0202999E+01  -8.6213166E-01   3.2638087E+00
  -1.0549840E+01  -8.8297290E-01   3.3434992E+00
  -1.0907038E+01  -9.0480918E-01   3.4230199E+00
  -1.1275014E+01  -9.2776036E-01   3.5020504E+00
  -1.1654247E+01  -9.5196354E-01   3.5802317E+00
  -1.2045289E+01  -9.7757602E-01   3.6571586E+00
  -1.2448768E+01  -1.0047776E+00   3.7323732E+00
  -1.2865400E+01  -1.0337729E+00   3.8053577E+00
  -1.3296000E+01  -1.0647953E+00   3.8755217E+00
  -1.3741488E+01  -1.0981095E+00   3.9421940E+00
  -1.4202894E+01  -1.1340159E+00   4.0046072E+00
  -1.4681371E+01  -1.1728556E+00   4.0618839E+00
  -1.5178199E+01  -1.2150147E+00   4.1130228E+00
  -1.5694784E+01  -1.2609313E+00   4.1568785E+00
  -1.6232668E+01  -1.3111024E+00   4.1921468E+00
  -1.6793522E+01  -1.3660926E+00   4.2173448E+00
  -1.7379150E+01  -1.4265450E+00   4.2307963E+00
  -1.7991482E+01  -1.4931940E+00   4.2306099E+00
  -1.8632572E+01  -1.5668815E+00   4.2146673E+00
  -1.9304602E+01  -1.6485776E+00   4.1806049E+00
  -2.0009869E+01  -1.7394053E+00   4.1257968E+00
  -2.0750797E+01  -1.8406737E+00   4.0473361E+00
  -2.1529947E+01  -1.9539180E+00   3.9420133E+00
  -2.2350018E+01  -2.0809536E+00   3.8062732E+00
  -2.3213860E+01  -2.2239342E+00   3.6361921E+00
  -2.4124498E+01  -2.3854458E+00   3.4273860E+00
  -2.5085127E+01  -2.5686066E+00   3.1749523E+00
  -2.6099108E+01  -2.7772026E+00   2.8733582E+00
  -2.7169954E+01  -3.0158634E+00   2.5163279E+00
  -2.8301292E+01  -3.2902827E+00   2.0966980E+00
  -2.9496826E+01  -3.6075058E+00   1.6062460E+00
  -3.0760244E+01  -3.9762917E+00   1.0354660E+00
  -3.2095135E+01  -4.4075670E+00   3.7324661E-01
  -3.3504768E+01  -4.9149776E+00  -3.9361072E-01
  -3.4991634E+01  -5.5155196E+00  -1.2811031E+00
  -3.6556564E+01  -6.2301970E+00  -2.3090091E+00
  -3.8196987E+01  -7.0846004E+00  -3.5021081E+00
  -3.9903851E+01  -8.1091442E+00  -4.8913765E+00
  -4.1656639E+01  -9.3385773E+00  -6.5145497E+00
  -4.3416004E+01  -1.0810101E+01  -8.4149303E+00
  -4.5114128E+01  -1.2559166E+01  -1.0636581E+01
  -4.6644131E+01  -1.4611843E+01  -1.3213601E+01
  -4.7851852E+01  -1.6972729E+01  -1.6151251E+01
  -4.8536228E+01  -1.9608179E+01  -1.9397831E+01
  -4.8467091E+01  -2.2427254E+01  -2.2810905E+01
  -4.7428581E+01  -2.5266127E+01  -2.6127674E+01
  -4.5289673E+01  -2.7886410E+01  -2.8957886E+01
  -4.2087032E+01  -2.9998688E+01  -3.0820183E+01
  -3.8085556E+01  -3.1316271E+01  -3.1231985E+01
  -3.3773884E+01  -3.1627800E+01  -2.9834415E+01
  -2.9773294E+01  -3.0860882E+01  -2.6502554E+01
  -2.6684980E+01  -2.9105162E+01  -2.1384514E+01
  -2.4941072E+01  -2.6581528E+01  -1.4844866E+01
  -2.2481918E-02  -5.1943970E-01  -1.1634827E-03
   5.9959412E-02  -5.1992130E-01   4.2863846E-02
   1.1939240E-01  -5.0593090E-01   1.0379314E-01
   1.5553665E-01  -4.8360348E-01   1.7043591E-01
   1.7205048E-01  -4.5800591E-01   2.3468876E-01
   1.7405224E-01  -4.3258381E-01   2.9188228E-01
   1.6652107E-01  -4.0932846E-01   3.4007502E-01
  -9.8783159E+00  -7.3046434E-01   3.1749439E+00
  -1.0215821E+01  -7.4650222E-01   3.2536530E+00
  -1.0563413E+01  -7.6326293E-01   3.3324208E+00
  -1.0921473E+01  -7.8083086E-01   3.4109619E+00
  -1.1290435E+01  -7.9930317E-01   3.4889555E+00
  -1.1670800E+01  -8.1879187E-01   3.5660419E+00
  -1.2063137E+01  -8.3942497E-01   3.6418161E+00
  -1.2468099E+01  -8.6134887E-01   3.7158198E+00
  -1.2886428E+01  -8.8473052E-01   3.7875333E+00
  -1.3318968E+01  -9.0976036E-01   3.8563654E+00
  -1.3766668E+01  -9.3665445E-01   3.9216428E+00
  -1.4230598E+01  -9.6565872E-01   3.9825943E+00
  -1.4711953E+01  -9.9705201E-01   4.0383382E+00
  -1.5212057E+01  -1.0311511E+00   4.0878658E+00
  -1.5732369E+01  -1.0683155E+00   4.1300230E+00
  -1.6274490E+01  -1.1089542E+00   4.1634927E+00
  -1.6840160E+01  -1.1535326E+00   4.1867762E+00
  -1.7431263E+01  -1.2025821E+00   4.1981745E+00
  -1.8049824E+01  -1.2567114E+00   4.1957693E+00
  -1.8698000E+01  -1.3166201E+00   4.1774044E+00
  -1.9378103E+01  -1.3831174E+00   4.1406689E+00
  -2.0092588E+01  -1.4571432E+00   4.0828733E+00
  -2.0844067E+01  -1.5397978E+00   4.0010309E+00
  -2.1635324E+01  -1.6323771E+00   3.8918228E+00
  -2.2469349E+01  -1.7364213E+00   3.7515538E+00
  -2.3349337E+01  -1.8537657E+00   3.5761139E+00
  -2.4278744E+01  -1.9866276E+00   3.3608749E+00
  -2.5261309E+01  -2.1376953E+00   3.1006041E+00
  -2.6301077E+01  -2.3102570E+00   2.7893353E+00
  -2.7402426E+01  -2.5083604E+00   2.4202087E+00
  -2.8570093E+01  -2.7370272E+00   1.9852729E+00
  -2.9809177E+01  -3.0025244E+00   1.4752336E+00
  -3.1125191E+01  -3.3127241E+00   8.7910360E-01