# vtk DataFile Version 3.0
SM polar seed points transformed to GSW coordinates
ASCII
DATASET POLYDATA
POINTS      288 float
       0.777853       0.000000       1.282554
       0.752303       0.194114       1.283105
       0.677395       0.375000       1.284722
       0.558234       0.530330       1.287294
       0.402940       0.649519       1.290645
       0.222097       0.724444       1.294548
       0.028028       0.750000       1.298736
      -0.166041       0.724444       1.302924
      -0.346885       0.649519       1.306827
      -0.502179       0.530330       1.310178
      -0.621340       0.375000       1.312750
      -0.696248       0.194114       1.314366
      -0.721798      -0.000000       1.314918
      -0.696248      -0.194114       1.314366
      -0.621340      -0.375000       1.312750
      -0.502179      -0.530330       1.310178
      -0.346885      -0.649519       1.306827
      -0.166041      -0.724444       1.302924
       0.028028      -0.750000       1.298736
       0.222097      -0.724444       1.294548
       0.402940      -0.649519       1.290645
       0.558234      -0.530330       1.287294
       0.677395      -0.375000       1.284722
       0.752303      -0.194114       1.283105
       0.663111       0.000000       1.345468
       0.641516       0.164072       1.345934
       0.578201       0.316964       1.347300
       0.477481       0.448254       1.349474
       0.346221       0.548997       1.352306
       0.193366       0.612327       1.355605
       0.029331       0.633927       1.359145
      -0.134703       0.612327       1.362685
      -0.287559       0.548997       1.365984
      -0.418819       0.448254       1.368817
      -0.519538       0.316964       1.370990
      -0.582853       0.164073       1.372357
      -0.604449      -0.000000       1.372823
      -0.582853      -0.164073       1.372357
      -0.519538      -0.316964       1.370990
      -0.418819      -0.448254       1.368817
      -0.287559      -0.548997       1.365984
      -0.134703      -0.612327       1.362685
       0.029331      -0.633927       1.359145
       0.193366      -0.612327       1.355605
       0.346221      -0.548997       1.352306
       0.477481      -0.448254       1.349474
       0.578201      -0.316964       1.347300
       0.641516      -0.164073       1.345934
       0.543323       0.000000       1.398142
       0.525846       0.132782       1.398519
       0.474606       0.256515       1.399625
       0.393094       0.362767       1.401384
       0.286867       0.444297       1.403676
       0.163163       0.495549       1.406346
       0.030412       0.513030       1.409211
      -0.102339       0.495549       1.412076
      -0.226044       0.444297       1.414745
      -0.332271       0.362767       1.417038
      -0.413782       0.256515       1.418797
      -0.465022       0.132782       1.419903
      -0.482499      -0.000000       1.420280
      -0.465022      -0.132782       1.419903
      -0.413782      -0.256515       1.418797
      -0.332271      -0.362767       1.417038
      -0.226044      -0.444297       1.414745
      -0.102339      -0.495549       1.412076
       0.030412      -0.513030       1.409211
       0.163163      -0.495549       1.406346
       0.286867      -0.444297       1.403676
       0.393094      -0.362767       1.401384
       0.474605      -0.256515       1.399625
       0.525846      -0.132782       1.398519
       0.419399       0.000000       1.440175
       0.406173       0.100481       1.440461
       0.367398       0.194114       1.441297
       0.305716       0.274519       1.442629
       0.225330       0.336216       1.444363
       0.131718       0.375000       1.446384
       0.031261       0.388229       1.448552
      -0.069197       0.375000       1.450719
      -0.162808       0.336216       1.452740
      -0.243194       0.274519       1.454474
      -0.304877       0.194114       1.455806
      -0.343652       0.100481       1.456642
      -0.356878      -0.000000       1.456928
      -0.343652      -0.100481       1.456642
      -0.304877      -0.194114       1.455806
      -0.243194      -0.274519       1.454474
      -0.162808      -0.336216       1.452740
      -0.069197      -0.375000       1.450719
       0.031261      -0.388229       1.448552
       0.131718      -0.375000       1.446384
       0.225330      -0.336216       1.444363
       0.305716      -0.274519       1.442629
       0.367398      -0.194114       1.441297
       0.406173      -0.100481       1.440461
       0.292284       0.000000       1.471248
       0.283410       0.067415       1.471439
       0.257395       0.130236       1.472001
       0.216011       0.184182       1.472894
       0.162078       0.225576       1.474058
       0.099271       0.251597       1.475413
       0.031872       0.260472       1.476868
      -0.035528       0.251597       1.478322
      -0.098334       0.225576       1.479678
      -0.152267       0.184182       1.480842
      -0.193651       0.130236       1.481735
      -0.219667       0.067415       1.482296
      -0.228540      -0.000000       1.482488
      -0.219667      -0.067415       1.482296
      -0.193651      -0.130236       1.481735
      -0.152267      -0.184182       1.480842
      -0.098334      -0.225576       1.479678
      -0.035528      -0.251597       1.478322
       0.031872      -0.260472       1.476868
       0.099271      -0.251597       1.475413
       0.162078      -0.225576       1.474058
       0.216011      -0.184182       1.472894
       0.257395      -0.130236       1.472001
       0.283410      -0.067415       1.471439
       0.162944       0.000000       1.491124
       0.158490       0.033836       1.491220
       0.145433       0.065367       1.491501
       0.124662       0.092443       1.491950
       0.097592       0.113219       1.492534
       0.066069       0.126279       1.493214
       0.032240       0.130734       1.493944
      -0.001588       0.126279       1.494674
      -0.033111       0.113219       1.495355
      -0.060181       0.092443       1.495939
      -0.080952       0.065367       1.496387
      -0.094009       0.033836       1.496669
      -0.098463      -0.000000       1.496765
      -0.094009      -0.033836       1.496669
      -0.080952      -0.065367       1.496387
      -0.060181      -0.092443       1.495939
      -0.033111      -0.113219       1.495355
      -0.001588      -0.126279       1.494674
       0.032240      -0.130734       1.493944
       0.066069      -0.126279       1.493214
       0.097592      -0.113219       1.492534
       0.124661      -0.092443       1.491950
       0.145433      -0.065367       1.491501
       0.158490      -0.033836       1.491220
       0.721798       0.000000      -1.314918
       0.696248       0.194114      -1.314366
       0.621340       0.375000      -1.312750
       0.502179       0.530330      -1.310178
       0.346885       0.649519      -1.306827
       0.166041       0.724444      -1.302924
      -0.028028       0.750000      -1.298736
      -0.222097       0.724444      -1.294548
      -0.402940       0.649519      -1.290645
      -0.558234       0.530330      -1.287294
      -0.677395       0.375000      -1.284722
      -0.752303       0.194114      -1.283105
      -0.777853      -0.000000      -1.282554
      -0.752303      -0.194114      -1.283105
      -0.677395      -0.375000      -1.284722
      -0.558234      -0.530330      -1.287294
      -0.402940      -0.649519      -1.290645
      -0.222097      -0.724444      -1.294548
      -0.028028      -0.750000      -1.298736
       0.166041      -0.724444      -1.302924
       0.346885      -0.649519      -1.306827
       0.502179      -0.530330      -1.310178
       0.621340      -0.375000      -1.312750
       0.696248      -0.194114      -1.314366
       0.604449       0.000000      -1.372823
       0.582853       0.164072      -1.372357
       0.519538       0.316964      -1.370990
       0.418819       0.448254      -1.368817
       0.287559       0.548997      -1.365984
       0.134703       0.612327      -1.362685
      -0.029331       0.633927      -1.359145
      -0.193366       0.612327      -1.355605
      -0.346221       0.548997      -1.352306
      -0.477481       0.448254      -1.349474
      -0.578201       0.316964      -1.347300
      -0.641516       0.164073      -1.345934
      -0.663111      -0.000000      -1.345468
      -0.641516      -0.164073      -1.345934
      -0.578201      -0.316964      -1.347300
      -0.477481      -0.448254      -1.349474
      -0.346221      -0.548997      -1.352306
      -0.193366      -0.612327      -1.355605
      -0.029331      -0.633927      -1.359145
       0.134703      -0.612327      -1.362685
       0.287559      -0.548997      -1.365984
       0.418819      -0.448254      -1.368817
       0.519538      -0.316964      -1.370990
       0.582853      -0.164073      -1.372357
       0.482499       0.000000      -1.420280
       0.465022       0.132782      -1.419903
       0.413782       0.256515      -1.418797
       0.332271       0.362767      -1.417038
       0.226044       0.444297      -1.414745
       0.102339       0.495549      -1.412076
      -0.030412       0.513030      -1.409211
      -0.163163       0.495549      -1.406346
      -0.286867       0.444297      -1.403676
      -0.393094       0.362767      -1.401384
      -0.474606       0.256515      -1.399625
      -0.525846       0.132782      -1.398519
      -0.543323      -0.000000      -1.398142
      -0.525846      -0.132782      -1.398519
      -0.474606      -0.256515      -1.399625
      -0.393094      -0.362767      -1.401384
      -0.286867      -0.444297      -1.403676
      -0.163163      -0.495549      -1.406346
      -0.030412      -0.513030      -1.409211
       0.102339      -0.495549      -1.412076
       0.226044      -0.444297      -1.414745
       0.332271      -0.362767      -1.417038
       0.413782      -0.256515      -1.418797
       0.465022      -0.132782      -1.419903
       0.356878       0.000000      -1.456928
       0.343652       0.100481      -1.456642
       0.304877       0.194114      -1.455806
       0.243194       0.274519      -1.454474
       0.162808       0.336216      -1.452740
       0.069197       0.375000      -1.450719
      -0.031261       0.388229      -1.448552
      -0.131718       0.375000      -1.446384
      -0.225330       0.336216      -1.444363
      -0.305716       0.274519      -1.442629
      -0.367398       0.194114      -1.441297
      -0.406173       0.100481      -1.440461
      -0.419399      -0.000000      -1.440175
      -0.406173      -0.100481      -1.440461
      -0.367398      -0.194114      -1.441297
      -0.305716      -0.274519      -1.442629
      -0.225330      -0.336216      -1.444363
      -0.131718      -0.375000      -1.446384
      -0.031261      -0.388229      -1.448552
       0.069197      -0.375000      -1.450719
       0.162808      -0.336216      -1.452740
       0.243194      -0.274519      -1.454474
       0.304877      -0.194114      -1.455806
       0.343652      -0.100481      -1.456642
       0.228540       0.000000      -1.482488
       0.219667       0.067415      -1.482296
       0.193651       0.130236      -1.481735
       0.152267       0.184182      -1.480842
       0.098334       0.225576      -1.479678
       0.035528       0.251597      -1.478322
      -0.031872       0.260472      -1.476868
      -0.099271       0.251597      -1.475413
      -0.162078       0.225576      -1.474058
      -0.216011       0.184182      -1.472894
      -0.257395       0.130236      -1.472001
      -0.283410       0.067415      -1.471439
      -0.292284      -0.000000      -1.471248
      -0.283410      -0.067415      -1.471439
      -0.257395      -0.130236      -1.472001
      -0.216011      -0.184182      -1.472894
      -0.162078      -0.225576      -1.474058
      -0.099271      -0.251597      -1.475413
      -0.031872      -0.260472      -1.476868
       0.035528      -0.251597      -1.478322
       0.098334      -0.225576      -1.479678
       0.152267      -0.184182      -1.480842
       0.193651      -0.130236      -1.481735
       0.219667      -0.067415      -1.482296
       0.098463       0.000000      -1.496765
       0.094009       0.033836      -1.496669
       0.080952       0.065367      -1.496387
       0.060181       0.092443      -1.495939
       0.033111       0.113219      -1.495355
       0.001588       0.126279      -1.494674
      -0.032240       0.130734      -1.493944
      -0.066069       0.126279      -1.493214
      -0.097592       0.113219      -1.492534
      -0.124662       0.092443      -1.491950
      -0.145433       0.065367      -1.491501
      -0.158490       0.033836      -1.491220
      -0.162944      -0.000000      -1.491124
      -0.158490      -0.033836      -1.491220
      -0.145433      -0.065367      -1.491501
      -0.124662      -0.092443      -1.491950
      -0.097592      -0.113219      -1.492534
      -0.066069      -0.126279      -1.493214
      -0.032240      -0.130734      -1.493944
       0.001588      -0.126279      -1.494674
       0.033111      -0.113219      -1.495355
       0.060181      -0.092443      -1.495939
       0.080952      -0.065367      -1.496387
       0.094009      -0.033836      -1.496669
VERTICES      288     576
 1        0
 1        1
 1        2
 1        3
 1        4
 1        5
 1        6
 1        7
 1        8
 1        9
 1       10
 1       11
 1       12
 1       13
 1       14
 1       15
 1       16
 1       17
 1       18
 1       19
 1       20
 1       21
 1       22
 1       23
 1       24
 1       25
 1       26
 1       27
 1       28
 1       29
 1       30
 1       31
 1       32
 1       33
 1       34
 1       35
 1       36
 1       37
 1       38
 1       39
 1       40
 1       41
 1       42
 1       43
 1       44
 1       45
 1       46
 1       47
 1       48
 1       49
 1       50
 1       51
 1       52
 1       53
 1       54
 1       55
 1       56
 1       57
 1       58
 1       59
 1       60
 1       61
 1       62
 1       63
 1       64
 1       65
 1       66
 1       67
 1       68
 1       69
 1       70
 1       71
 1       72
 1       73
 1       74
 1       75
 1       76
 1       77
 1       78
 1       79
 1       80
 1       81
 1       82
 1       83
 1       84
 1       85
 1       86
 1       87
 1       88
 1       89
 1       90
 1       91
 1       92
 1       93
 1       94
 1       95
 1       96
 1       97
 1       98
 1       99
 1      100
 1      101
 1      102
 1      103
 1      104
 1      105
 1      106
 1      107
 1      108
 1      109
 1      110
 1      111
 1      112
 1      113
 1      114
 1      115
 1      116
 1      117
 1      118
 1      119
 1      120
 1      121
 1      122
 1      123
 1      124
 1      125
 1      126
 1      127
 1      128
 1      129
 1      130
 1      131
 1      132
 1      133
 1      134
 1      135
 1      136
 1      137
 1      138
 1      139
 1      140
 1      141
 1      142
 1      143
 1      144
 1      145
 1      146
 1      147
 1      148
 1      149
 1      150
 1      151
 1      152
 1      153
 1      154
 1      155
 1      156
 1      157
 1      158
 1      159
 1      160
 1      161
 1      162
 1      163
 1      164
 1      165
 1      166
 1      167
 1      168
 1      169
 1      170
 1      171
 1      172
 1      173
 1      174
 1      175
 1      176
 1      177
 1      178
 1      179
 1      180
 1      181
 1      182
 1      183
 1      184
 1      185
 1      186
 1      187
 1      188
 1      189
 1      190
 1      191
 1      192
 1      193
 1      194
 1      195
 1      196
 1      197
 1      198
 1      199
 1      200
 1      201
 1      202
 1      203
 1      204
 1      205
 1      206
 1      207
 1      208
 1      209
 1      210
 1      211
 1      212
 1      213
 1      214
 1      215
 1      216
 1      217
 1      218
 1      219
 1      220
 1      221
 1      222
 1      223
 1      224
 1      225
 1      226
 1      227
 1      228
 1      229
 1      230
 1      231
 1      232
 1      233
 1      234
 1      235
 1      236
 1      237
 1      238
 1      239
 1      240
 1      241
 1      242
 1      243
 1      244
 1      245
 1      246
 1      247
 1      248
 1      249
 1      250
 1      251
 1      252
 1      253
 1      254
 1      255
 1      256
 1      257
 1      258
 1      259
 1      260
 1      261
 1      262
 1      263
 1      264
 1      265
 1      266
 1      267
 1      268
 1      269
 1      270
 1      271
 1      272
 1      273
 1      274
 1      275
 1      276
 1      277
 1      278
 1      279
 1      280
 1      281
 1      282
 1      283
 1      284
 1      285
 1      286
 1      287
POINT_DATA      288
SCALARS hemisphere int 1
LOOKUP_TABLE default
 1
 1
 1
 1
 1
 1
 1
 1
 1
 1
 1
 1
 1
 1
 1
 1
 1
 1
 1
 1
 1
 1
 1
 1
 1
 1
 1
 1
 1
 1
 1
 1
 1
 1
 1
 1
 1
 1
 1
 1
 1
 1
 1
 1
 1
 1
 1
 1
 1
 1
 1
 1
 1
 1
 1
 1
 1
 1
 1
 1
 1
 1
 1
 1
 1
 1
 1
 1
 1
 1
 1
 1
 1
 1
 1
 1
 1
 1
 1
 1
 1
 1
 1
 1
 1
 1
 1
 1
 1
 1
 1
 1
 1
 1
 1
 1
 1
 1
 1
 1
 1
 1
 1
 1
 1
 1
 1
 1
 1
 1
 1
 1
 1
 1
 1
 1
 1
 1
 1
 1
 1
 1
 1
 1
 1
 1
 1
 1
 1
 1
 1
 1
 1
 1
 1
 1
 1
 1
 1
 1
 1
 1
 1
 1
-1
-1
-1
-1
-1
-1
-1
-1
-1
-1
-1
-1
-1
-1
-1
-1
-1
-1
-1
-1
-1
-1
-1
-1
-1
-1
-1
-1
-1
-1
-1
-1
-1
-1
-1
-1
-1
-1
-1
-1
-1
-1
-1
-1
-1
-1
-1
-1
-1
-1
-1
-1
-1
-1
-1
-1
-1
-1
-1
-1
-1
-1
-1
-1
-1
-1
-1
-1
-1
-1
-1
-1
-1
-1
-1
-1
-1
-1
-1
-1
-1
-1
-1
-1
-1
-1
-1
-1
-1
-1
-1
-1
-1
-1
-1
-1
-1
-1
-1
-1
-1
-1
-1
-1
-1
-1
-1
-1
-1
-1
-1
-1
-1
-1
-1
-1
-1
-1
-1
-1
-1
-1
-1
-1
-1
-1
-1
-1
-1
-1
-1
-1
-1
-1
-1
-1
-1
-1
-1
-1
-1
-1
-1
-1
