<?xml version="1.0"?>
<VTKFile type="StructuredGrid" version="0.1" byte_order="LittleEndian" header_type="UInt32" compressor="vtkZLibDataCompressor">
  <StructuredGrid WholeExtent="0 60 0 20 0 20">
  <Piece Extent="0 60 0 20 0 20">
    <PointData Vectors="B_total">
      <DataArray type="Float32" Name="B_total" NumberOfComponents="3" format="ascii" RangeMin="0" RangeMax="65190.81100363112">
        -10.1087 -1.4632312 3.1924345 -10.448095 -1.50331 3.279806
        -10.796554 -1.5449116 3.3678706 -11.154289 -1.5882069 3.4563267
        -11.521556 -1.633393 3.5448322 -11.898654 -1.6806973 3.6330004
        -12.285934 -1.7303808 3.7203932 -12.683807 -1.782741 3.8065157
        -13.09275 -1.8381164 3.8908086 -13.513311 -1.896891 3.9726386
        -13.946121 -1.9594984 4.05129 -14.391893 -2.026427 4.1259537
        -14.851428 -2.0982263 4.1957154 -15.325612 -2.1755114 4.2595434
        -15.815425 -2.2589715 4.316279 -16.321922 -2.3493767 4.36462
        -16.84624 -2.447588 4.4031153 -17.38957 -2.5545664 4.4301524
        -17.953152 -2.6713872 4.4439526 -18.538254 -2.7992537 4.4425707
        -19.146137 -2.9395173 4.423896 -19.77804 -3.093698 4.385658
        -20.435135 -3.2635138 4.325438 -21.118496 -3.450913 4.240688
        -21.829052 -3.6581142 4.128744 -22.567537 -3.8876543 3.986845
        -23.334423 -4.1424427 3.8121717 -24.129822 -4.425826 3.6018496
        -24.953367 -4.741658 3.3530068 -25.804058 -5.094379 3.0628314
        -26.680058 -5.4891 2.7286742 -27.578442 -5.931687 2.3482091
        -28.494925 -6.4288464 1.9196666 -29.423565 -6.988185 1.4421519
        -30.356478 -7.6182275 0.9160371 -31.28356 -8.3283415 0.34341404
        -32.19226 -9.128499 -0.27142924 -33.067375 -10.028759 -0.92155683
        -33.89087 -11.038353 -1.596944 -34.641685 -12.16415 -2.284043
        -35.295685 -13.40844 -2.9652238 -35.825825 -14.765833 -3.617856
        -36.203133 -16.219555 -4.2128773 -36.399105 -17.737423 -4.7127757
        -36.390327 -19.26854 -5.0693626 -36.16574 -20.741901 -5.222269
        -35.7361 -22.06842 -5.0994587 -35.143658 -23.147495 -4.6210246
        -34.469074 -23.87806 -3.7064402 -7.855067 -5.872905 -0.19179964
        -0.09108281 -0.44042873 0.42063808 -0.072066784 -0.46426392 0.41196442
        -0.048148632 -0.48120308 0.4076891 -0.022137642 -0.489995 0.40826726
        0.0031108856 -0.49062824 0.41335726 0.025279999 -0.48412704 0.42199266
        0.04292202 -0.4721899 0.43287897 0.055494785 -0.4567151 0.44473013
        0.06320286 -0.43948698 0.45644933 0.06672239 -0.42194557 0.46726483
        0.0669446 -0.4051156 0.47672862 -10.15093 -1.3629196 3.1842675
        -10.491847 -1.3996797 3.2698445 -10.841992 -1.4378397 3.355956
        -11.201611 -1.4775567 3.4422956 -11.570983 -1.5190129 3.5285168
        -11.950443 -1.5624177 3.6142285 -12.340378 -1.6080122 3.6989877
        -12.741238 -1.6560712 3.782295 -13.153543 -1.7069081 3.8635855
        -13.577892 -1.7608787 3.942219 -14.014966 -1.8183851 4.0174723
        -14.465536 -1.8798821 4.0885262 -14.930464 -1.9458811 4.1544557
        -15.410707 -2.016958 4.214214 -15.907316 -2.093759 4.2666235
        -16.421432 -2.177009 4.31036 -16.954277 -2.267523 4.343944
        -17.507149 -2.3662152 4.3657284 -18.0814 -2.474114 4.373891
        -18.678425 -2.5923798 4.366432 -19.299637 -2.7223244 4.3411713
        -19.946444 -2.8654373 4.29575 -20.620224 -3.0234184 4.22764
        -21.322287 -3.1982152 4.1341496 -22.053844 -3.3920705 4.0124316
        -22.81596 -3.6075802 3.8594897 -23.609497 -3.847761 3.672204
        -24.435028 -4.1161304 3.447319 -25.292725 -4.4168053 3.1814785
        -26.18221 -4.7546086 2.8712637 -27.10238 -5.1351986 2.5132604
        -28.051146 -5.5652075 2.104187 -29.025179 -6.0524015 1.6410662
        -30.01959 -6.6058207 1.1214699 -31.027603 -7.2359023 0.54381347
        -32.04017 -7.9545135 -0.09231509 -33.045517 -8.774813 -0.7858131
        -34.028606 -9.71081 -1.5337102 -34.970387 -10.776432 -2.3307645
        -35.846836 -11.98386 -3.1688528 -36.627956 -13.3409 -4.0359173
        -37.276947 -14.84717 -4.914098 -37.750404 -16.489178 -5.776752
        -38.000687 -18.234695 -6.58435 -37.981693 -20.02745 -7.279868
        -37.65912 -21.783978 -7.785252 -37.024635 -23.394806 -8.001217
        -36.111515 -24.73229 -7.812764 -35.006607 -25.665455 -7.1013393
        -33.85289 -26.080252 -5.761958 -17.677727 -14.110251 -1.8202848
        -0.09599447 -0.48959732 0.36485004 -0.063063145 -0.51200676 0.35717297
        -0.027309418 -0.5234318 0.35752487 0.0069465637 -0.523942 0.36524343
        0.03635788 -0.51511574 0.37862325 0.05899334 -0.4994402 0.39546156
        0.07431984 -0.4795761 0.4136207 0.08290577 -0.457932 0.4313677
        0.08592129 -0.43634272 0.44754893 0.08475351 -0.4160428 0.46154043
        -10.182494 -1.2567382 3.1739209 -10.524595 -1.2899565 3.257843
        -10.876075 -1.3244426 3.342163 -11.2372 -1.3603395 3.4265723
        -11.608282 -1.3978127 3.510721 -11.989683 -1.4370528 3.5942154
        -12.381824 -1.478279 3.67661 -12.785192 -1.5217423 3.7574024
        -13.20035 -1.5677284 3.8360238 -13.627939 -1.6165622 3.911831
        -14.06869 -1.6686124 3.9840944 -14.523426 -1.7242951 4.0519896
        -14.99307 -1.7840812 4.114581 -15.478642 -1.848501 4.170814
        -15.981266 -1.9181516 4.219495 -16.50216 -1.9937062 4.2592816
        -17.042639 -2.0759234 4.288672 -17.604095 -2.1656592 4.3059883
        -18.187998 -2.2638824 4.309371 -18.795876 -2.3716917 4.2967706
        -19.42929 -2.4903395 4.2659435 -20.089832 -2.621258 4.21445
        -20.77909 -2.7660952 4.1396537 -21.498629 -2.9267578 4.038724
        -22.249964 -3.1054635 3.90863 -23.034525 -3.3048043 3.7461503
        -23.853607 -3.527829 3.5478497 -24.70831 -3.7781377 3.3100812
        -25.599428 -4.059998 3.028983 -26.527348 -4.3784876 2.7004862
        -27.491856 -4.7396584 2.3203456 -28.491941 -5.150738 1.8842057
        -29.525536 -5.620354 1.3877017 -30.589216 -6.158777 0.8265916
        -31.677837 -6.7781606 0.19691591 -32.784046 -7.492708 -0.5048614
        -33.89763 -8.318697 -1.2816956 -35.004566 -9.274187 -2.1358235
        -36.08565 -10.378193 -3.0684361 -37.11462 -11.649006 -4.0790024
        -38.055862 -13.101315 -5.163724 -38.862186 -14.741743 -6.31258
        -39.4737 -16.562717 -7.50447 -39.819473 -18.534828 -8.70024
        -39.824207 -20.598953 -9.834566 -39.42179 -22.660254 -10.808831
        -38.575737 -24.587511 -11.488853 -37.303528 -26.221352 -11.711613
        -35.69725 -27.393505 -11.303767 -33.930664 -27.955032 -10.110069
        -32.24452 -27.80648 -8.024028 -17.743187 -15.623462 -2.7372456
        -0.08266926 -0.54010963 0.2887497 -0.03393936 -0.5550728 0.2885933
        0.012142181 -0.55573845 0.30015326 0.050777435 -0.5444689 0.3204689
        0.07944775 -0.52474403 0.345886 0.097800255 -0.50020885 0.37296534
        0.10698032 -0.47397232 0.39907324 0.10891151 -0.4483142 0.42253202
        0.10566664 -0.42464924 0.44253764 -10.204993 -1.1451148 3.161252
        -10.547993 -1.1745944 3.2436504 -10.900503 -1.2052021 3.3263328
        -11.262814 -1.2370657 3.408988 -11.635262 -1.270333 3.4912646
        -12.018236 -1.3051748 3.5727684 -12.412188 -1.3417872 3.6530528
        -12.817639 -1.380395 3.7316134 -13.235188 -1.4212545 3.8078804
        -13.665516 -1.4646577 3.881208 -14.109401 -1.5109358 3.9508648
        -14.567716 -1.5604644 4.0160217 -15.041434 -1.6136681 4.075738
        -15.531643 -1.6710266 4.12895 -16.039528 -1.7330824 4.174455
        -16.566385 -1.8004484 4.210897 -17.113611 -1.8738179 4.2367535
        -17.682703 -1.953977 4.250323 -18.275234 -2.0418189 4.249712
        -18.892862 -2.138364 4.2328286 -19.537308 -2.244781 4.197371
        -20.210337 -2.3624165 4.1408234 -20.913755 -2.4928312 4.06045
        -21.649391 -2.6378448 3.953287 -22.419075 -2.799594 3.816127
        -23.22462 -2.9805958 3.6455204 -24.067791 -3.1838434 3.4377275
        -24.950249 -3.412908 3.188706 -25.873497 -3.672074 2.8940775
        -26.838766 -3.9665027 2.5490994 -27.846884 -4.302435 2.1486452
        -28.898117 -4.687441 1.6872008 -29.991947 -5.1307096 1.1588624
        -31.126799 -5.643393 0.55734 -32.299667 -6.2389565 -0.12408064
        -33.505577 -6.9335184 -0.8926244 -34.736744 -7.7460685 -1.756177
        -35.981216 -8.698393 -2.7234163 -37.220837 -9.814477 -3.8037696
        -38.428307 -11.118988 -5.0067587 -39.563362 -12.634362 -6.3401136
        -40.56861 -14.375918 -7.805715 -41.366306 -16.344604 -9.392527
        -41.85843 -18.517328 -11.065981 -41.933456 -20.83592 -12.754746
        -41.48307 -23.197319 -14.337891 -40.430504 -25.4496 -15.638013
        -38.766945 -27.39946 -16.427988 -36.585793 -28.835522 -16.457142
        -34.098526 -29.566254 -15.495947 -31.617493 -29.462864 -13.387676
        -29.502459 -28.491676 -10.086777 -8.157953 -8.086402 -1.4872398
        -0.042785645 -0.57894325 0.19901752 0.018406868 -0.5805378 0.21581459
        0.06849098 -0.56728363 0.24576235 0.10429287 -0.54388237 0.28297234
        0.12584972 -0.5150881 0.32209587 0.13521957 -0.48477983 0.3592559
        0.1353836 -0.4556508 0.39214194 0.12930584 -0.42925644 0.41977492
        -10.220139 -1.0285181 3.1467912 -10.563803 -1.054084 3.2278054
        -10.917094 -1.0806315 3.3090086 -11.280321 -1.1082722 3.39009
        -11.653843 -1.1371356 3.4706986 -12.038074 -1.167371 3.5504382
        -12.433491 -1.1991501 3.628863 -12.840648 -1.2326698 3.7054694
        -13.260172 -1.2681552 3.7796865 -13.692787 -1.3058627 3.8508687
        -14.139307 -1.3460834 3.9182835 -14.600651 -1.389148 3.9810987
        -15.077843 -1.435431 4.0383716 -15.572023 -1.485357 4.089032
        -16.084442 -1.5394069 4.1318707 -16.616465 -1.5981252 4.1655207
        -17.169567 -1.6621304 4.188444 -17.745333 -1.7321264 4.198918
        -18.345448 -1.8089168 4.1950226 -18.971693 -1.8934232 4.174626
        -19.62593 -1.9867078 4.1353755 -20.310106 -2.0900009 4.074687
        -21.02624 -2.204738 3.9897318 -21.776413 -2.332604 3.8774223
        -22.562778 -2.4755924 3.734386 -23.387533 -2.6360693 3.556953
        -24.252922 -2.816873 3.3410926 -25.161196 -3.0214207 3.0823755
        -26.11459 -3.2538536 2.7759132 -27.115248 -3.5192146 2.4162862
        -28.16514 -3.823679 1.997469 -29.265951 -4.1748333 1.5127416
        -30.418922 -4.582023 0.95457566 -31.624638 -5.0567703 0.31446278
        -32.882694 -5.6132436 -0.4173395 -34.191128 -6.2687464 -1.2522101
        -35.54541 -7.0441375 -2.203673 -36.93681 -7.9640465 -3.2879882
        -38.34964 -9.056585 -4.5245185 -39.75721 -10.352157 -5.935353
        -41.116264 -11.880782 -7.543309 -42.360348 -13.667116 -9.366901
        -43.39371 -15.722506 -11.410957 -44.08855 -18.033476 -13.651546
        -44.290493 -20.547525 -16.016006 -43.837994 -23.15881 -18.361301
        -42.5994 -25.699446 -20.45919 -40.52546 -27.944733 -22.000368
        -37.703323 -29.639315 -22.629055 -34.3875 -30.54518 -22.010109
        -30.981941 -30.499681 -19.91212 -27.964985 -29.461245 -16.273031
        -25.779072 -27.52096 -11.214784 -0.055104256 -0.58644867 0.08917427
        0.024737358 -0.590498 0.1124649 0.08859539 -0.5767565 0.15486431
        0.13260841 -0.55120945 0.20725393 0.15747261 -0.51971626 0.2616992
        0.166605 -0.4868884 0.31264806 0.16432095 -0.45576286 0.3570614
        0.15472984 -0.42797852 0.39384276 -10.229623 -0.90750086 3.131553
        -10.573766 -0.92899907 3.2113392 -10.927635 -0.9513261 3.291239
        -11.291556 -0.97457665 3.3709412 -11.665908 -0.9988604 3.4500957
        -12.051123 -1.0243044 3.5283067 -12.447705 -1.0510545 3.605129
        -12.856232 -1.0792781 3.6800601 -13.277361 -1.1091669 3.7525303
        -13.711847 -1.1409389 3.8218937 -14.160541 -1.1748428 3.887418
        -14.624399 -1.211161 3.9482708 -15.104492 -1.2502137 4.0035076
        -15.602005 -1.292365 4.052055 -16.118248 -1.3380276 4.092697
        -16.654646 -1.3876702 4.1240597 -17.212748 -1.4418273 4.1445932
        -17.79422 -1.5011082 4.1525574 -18.400845 -1.566212 4.146008
        -19.034517 -1.6379429 4.1227813 -19.697237 -1.7172323 4.080479
        -20.391113 -1.8051647 4.016457 -21.118366 -1.9030116 3.927803
        -21.881325 -2.0122743 3.8113167 -22.682436 -2.1347399 3.6634758
        -23.524277 -2.272543 3.4804068 -24.409555 -2.4282622 3.2578065
        -25.341108 -2.6050284 2.9908848 -26.321898 -2.8066645 2.6742666
        -27.354994 -3.0378718 2.3018808 -28.443533 -3.3044622 1.8668239
        -29.590685 -3.613658 1.3611817 -30.799564 -3.9744673 0.7757858
        -32.073112 -4.398143 0.099860504 -33.41381 -4.898732 -0.67949504
        -34.823166 -5.4936857 -1.5780545 -36.300636 -6.204461 -2.6154451
        -37.841713 -7.0569983 -3.8162875 -39.434586 -8.081787 -5.211189
        -41.054996 -9.313135 -6.836934 -42.658836 -10.786963 -8.734653
        -44.17275 -12.536167 -10.944228 -45.484253 -14.582523 -13.492569
        -46.43492 -16.924194 -16.37382 -46.822952 -19.518871 -19.52072
        -46.423687 -22.265198 -22.771301 -45.035824 -24.988768 -25.84153
        -42.553246 -27.4432 -28.32267 -39.04586 -29.337267 -29.724075
        -34.81337 -30.39135 -29.56909 -30.370111 -30.410187 -27.522093
        -26.343254 -29.343182 -23.49452 -23.314705 -27.301025 -17.672775
        -21.675098 -24.51886 -10.448921 0.029045105 -0.5762291 -0.0051937103
        0.10885811 -0.56489754 0.05178833 0.16208076 -0.5402956 0.12215042
        0.19043255 -0.50918293 0.19456005 0.1990242 -0.47669935 0.2614684
        0.19386196 -0.44609213 0.31900668 0.18034554 -0.41905212 0.3660304
        -10.235004 -0.7827067 3.1168065 -10.579481 -0.800005 3.1955442
        -10.933767 -0.81797355 3.2743373 -11.298201 -0.8366892 3.352874
        -11.673175 -0.8562411 3.4308052 -12.059143 -0.8767327 3.507737
        -12.456627 -0.89828277 3.5832248 -12.866226 -0.9210275 3.656767
        -13.288623 -0.9451232 3.7277951 -13.724598 -0.9707478 3.795665
        -14.175033 -0.9981043 3.8596444 -14.640916 -1.0274234 3.9189017
        -15.123357 -1.0589675 3.9724905 -15.623583 -1.0930347 4.019336
        -16.142948 -1.1299642 4.0582194 -16.682936 -1.1701418 4.087759
        -17.245152 -1.2140081 4.106396 -17.831339 -1.2620676 4.1123776
        -18.443361 -1.3148994 4.1037383 -19.083214 -1.3731738 4.078288
        -19.75302 -1.4376683 4.0335913 -20.455034 -1.5092925 3.9669495
        -21.191652 -1.5891176 3.8753808 -21.965425 -1.6784137 3.755587
        -22.779074 -1.7787007 3.603912 -23.635515 -1.8918023 3.416306
        -24.537884 -2.019936 3.1882234 -25.489557 -2.1658092 2.9145489
        -26.494179 -2.332751 2.5894694 -27.555698 -2.5248861 2.2063181
        -28.678375 -2.747355 1.7573818 -29.866814 -3.0066037 1.2336273
        -31.125988 -3.3107486 0.6243314 -32.46119 -3.6700468 -0.08345882
        -33.87788 -4.0974536 -0.9057205 -35.381226 -4.609294 -1.8625758
        -36.97504 -5.2259655 -2.97979 -38.65967 -5.9726 -4.2905536
        -40.428288 -6.8794556 -5.8372736 -42.260674 -7.98164 -7.6725407
        -44.114082 -9.317513 -9.857901 -45.910942 -10.924829 -12.45807
        -47.524757 -12.83322 -15.527335 -48.768158 -15.051822 -19.084898
        -49.390785 -17.5514 -23.076797 -49.09911 -20.24296 -27.328129
        -47.610806 -22.95923 -31.498747 -44.747944 -25.450882 -35.06893
        -40.55056 -27.411598 -37.388294 -35.3613 -28.538616 -37.805393
        -29.817839 -28.615824 -35.851566 -24.720427 -27.585382 -31.40091
        -20.814568 -25.569157 -24.717278 -18.589422 -22.826427 -16.355524
        0.02801323 -0.5290556 -0.12614822 0.12540817 -0.5244074 -0.0544281
        0.18875694 -0.5054779 0.034770012 0.22099686 -0.4793415 0.12610245
        0.22919273 -0.4513216 0.2097125 0.22124672 -0.42473078 0.28084326
        0.20391464 -0.4012487 0.3383429 -10.237631 -0.6548507 3.103858
        -10.582331 -0.6678406 3.1817515 -10.936904 -0.68133676 3.2596562
        -11.3017 -0.69539773 3.3372617 -11.677123 -0.7100914 3.4142194
        -12.063643 -0.72549635 3.4901366 -12.461796 -0.741703 3.5645697
        -12.872197 -0.7588152 3.637019 -13.295549 -0.77695197 3.7069163
        -13.732656 -0.7962491 3.7736192 -14.184419 -0.8168615 3.8363967
        -14.651857 -0.83896536 3.8944168 -15.136108 -0.8627615 3.9467342
        -15.638433 -0.8884781 3.992272 -16.160221 -0.91637516 4.0298076
        -16.703003 -0.94674927 4.0579567 -17.268436 -0.97993946 4.075153
        -17.858318 -1.0163345 4.079632 -18.474585 -1.0563828 4.069414
        -19.119312 -1.1006029 4.042287 -19.794724 -1.1495994 3.9957838
        -20.503195 -1.2040813 3.9271655 -21.24727 -1.2648863 3.8333902
        -22.029684 -1.3330122 3.7110765 -22.853394 -1.4096516 3.5564723
        -23.721594 -1.4962506 3.3653667 -24.637789 -1.5945687 3.1330197
        -25.605818 -1.7067646 2.854041 -26.629923 -1.835508 2.5222497
        -27.714811 -1.984123 2.1304731 -28.86573 -2.1567795 1.6703023
        -30.088573 -2.3587396 1.1317344 -31.389982 -2.596682 0.5026892
        -32.777405 -2.879113 -0.23171447 -34.25907 -3.2168837 -1.0902073
        -35.843616 -3.6238053 -2.0968542 -37.5391 -4.1173577 -3.2830524
        -39.35083 -4.7193947 -4.689999 -41.277306 -5.4567094 -6.371316
        -43.303295 -6.361108 -8.394975 -45.389088 -7.468465 -10.84291
        -47.455544 -8.815813 -13.805473 -49.365814 -10.435207 -17.366692
        -50.90772 -12.342823 -21.575026 -51.786015 -14.522385 -26.396244
        -51.63947 -16.90387 -31.649908 -50.101624 -19.343292 -36.94542
        -46.91485 -21.615065 -41.651695 -42.07919 -23.432266 -44.9488
        -35.97337 -24.503775 -45.99273 -29.35946 -24.617262 -44.163616
        -23.219212 -23.713722 -39.290142 -18.470945 -21.91127 -31.720333
        -15.705795 -19.462116 -22.187927 -12.204458 -13.585804 -9.400185
        0.1331482 -0.45179176 -0.14975357 0.20736313 -0.4441538 -0.044160843
        0.2442646 -0.42847395 0.064183235 0.2529335 -0.40976048 0.16293716
        0.2430687 -0.3911786 0.24639583 0.2227869 -0.37438464 0.3133911
        -10.238583 -0.5246913 3.0938752 -10.583421 -0.5332895 3.1711502
        -10.938176 -0.5422259 3.2484062 -11.303208 -0.55154 3.3253336
        -11.678932 -0.56127757 3.401584 -12.065824 -0.5714917 3.4767656
        -12.464433 -0.5822434 3.550437 -12.875387 -0.5936029 3.6220977
        -13.299403 -0.60565066 3.6911829 -13.737299 -0.6184785 3.757049
        -14.189995 -0.63219124 3.818967 -14.658529 -0.6469085 3.876106
        -15.144057 -0.6627663 3.9275186 -15.647869 -0.6799194 3.9721289
        -16.171385 -0.69854486 4.008713 -16.716158 -0.71884423 4.0358815
        -17.28389 -0.74104863 4.0520644 -17.876421 -0.76542336 4.0554895
        -18.495735 -0.7922747 4.0441666 -19.143972 -0.8219582 4.015866
        -19.82343 -0.8548884 3.9680996 -20.536573 -0.8915528 3.898096
        -21.28606 -0.9325282 3.8027716 -22.074764 -0.9785045 3.6786847
        -22.905807 -1.0303056 3.5220027 -23.78262 -1.0889357 3.3284044
        -24.708967 -1.1556181 3.0929983 -25.689056 -1.2318585 2.8101902
        -26.727581 -1.3195251 2.4735174 -27.829842 -1.4209514 2.0754235
        -29.00186 -1.5390759 1.6069632 -30.25055 -1.6776228 1.0573877
        -31.583868 -1.8413409 0.41355717 -33.01101 -2.0363102 -0.34092522
        -34.542454 -2.2703354 -1.2269702 -36.189705 -2.553419 -2.271792
        -37.9644 -2.8983257 -3.5113475 -39.876144 -3.3211765 -4.9933844
        -41.928234 -3.8419728 -6.7808256 -44.110268 -4.484844 -8.9546385
        -46.386173 -5.27758 -11.614326 -48.6771 -6.24979 -14.872917
        -50.839584 -7.4286084 -18.841585 -52.642868 -8.830717 -23.597055
        -53.755413 -10.449524 -29.126596 -53.75853 -12.237984 -35.25054
        -52.210884 -14.091011 -41.539024 -48.78024 -15.837012 -47.26472
        -43.424538 -17.251732 -51.453773 -36.54837 -18.102722 -53.081787
        -29.02216 -18.216843 -51.383636 -21.99139 -17.543911 -46.14213
        -16.531313 -16.1782 -37.78322 -13.324013 -14.322607 -27.20858
        -12.521044 -12.217772 -15.464451 0.12689972 -0.35055542 -0.21729279
        0.2123394 -0.3591175 -0.10193634 0.2551365 -0.35888433 0.017896652
        0.26589584 -0.35390377 0.12745047 0.25587845 -0.34696102 0.21993494
        0.23430729 -0.33968997 0.29399073 -10.238645 -0.39300427 3.0877645
        -10.583551 -0.39715484 3.1646638 -10.938403 -0.40147254 3.2415261
        -11.303565 -0.40597734 3.3180425 -11.679454 -0.41069245 3.3938653
        -12.066555 -0.41564482 3.4686031 -12.465423 -0.42086548 3.5418146
        -12.876695 -0.42639002 3.6130009 -13.301095 -0.4322594 3.681597
        -13.739449 -0.4385204 3.7469614 -14.192689 -0.44522643 3.8083642
        -14.661864 -0.45243844 3.8649747 -15.148146 -0.46022582 3.915847
        -15.652836 -0.46866786 3.959904 -16.17737 -0.4778549 3.99592
        -16.723328 -0.4878903 4.0225053 -17.292425 -0.49889258 4.038086
        -17.886532 -0.51099765 4.0408845 -18.507668 -0.52436316 4.0289054
        -19.158 -0.5391717 3.999908 -19.839884 -0.55563664 3.9513915
        -20.555832 -0.5740092 3.8805645 -21.308573 -0.5945863 3.7843165
        -22.101067 -0.6177248 3.659171 -22.936546 -0.6438482 3.501245
        -23.818565 -0.67347467 3.3061483 -24.751078 -0.7072357 3.0688968
        -25.738504 -0.7459082 2.78377 -26.785824 -0.7904556 2.4441307
        -27.89872 -0.84208226 2.0421822 -29.0837 -0.9023035 1.5686449
        -30.34832 -0.9730422 1.0123007 -31.701395 -1.0567491 0.35934043
        -33.15324 -1.1565664 -0.40759307 -34.71579 -1.2765299 -1.3108034
        -36.402447 -1.421824 -2.3795278 -38.227222 -1.5990787 -3.6526709
        -40.202606 -1.8166947 -5.182254 -42.33527 -2.0851583 -7.037332
        -44.618244 -2.4171996 -9.307514 -47.018364 -2.827641 -12.10417
        -49.45771 -3.3325465 -15.555923 -51.789375 -3.9470801 -19.792969
        -53.77134 -4.681449 -24.912569 -55.048737 -5.5340796 -30.918705
        -55.164505 -6.4821844 -37.635014 -53.625652 -7.4716167 -44.607418
        -50.046486 -8.411324 -51.043655 -44.352585 -9.180414 -55.862133
        -36.96314 -9.651973 -57.908882 -28.822304 -9.728219 -56.312695
        -21.19003 -9.378917 -50.82122 -15.251852 -8.654865 -41.915676
        -11.753296 -7.667261 -30.618193 -10.84778 -6.5477624 -18.109798
        0.10348511 -0.23278713 -0.242136 0.1997261 -0.25963998 -0.12721825
        0.2496872 -0.27753186 -0.004609108 0.26473618 -0.28890967 0.10883093
        0.2569847 -0.29584968 0.2051878 0.23643017 -0.29989624 0.2826035
        -10.238293 -0.26056796 3.0860949 -10.583212 -0.26024327 3.1628718
        -10.938082 -0.25991312 3.239606 -11.303272 -0.25957775 3.315988
        -11.679204 -0.2592376 3.3916712 -12.06636 -0.25889304 3.4662635
        -12.465299 -0.25854474 3.5393245 -12.876659 -0.25819334 3.6103554
        -13.301169 -0.25783986 3.678791 -13.739657 -0.2574852 3.74399
        -14.193059 -0.2571307 3.805223 -14.662427 -0.25677794 3.8616595
        -15.148935 -0.2564287 3.912353 -15.653893 -0.25608507 3.9562266
        -16.178741 -0.2557497 3.9920545 -16.725061 -0.2554255 4.018446
        -17.294582 -0.255116 4.033825 -17.88918 -0.25482523 4.0364146
        -18.510881 -0.25455797 4.0242147 -19.161877 -0.25431967 3.994984
        -19.84452 -0.25411654 3.9462144 -20.561352 -0.25395557 3.8751097
        -21.315123 -0.25384465 3.7785506 -22.108818 -0.25379378 3.6530476
        -22.945704 -0.25380993 3.4947014 -23.829384 -0.25390399 3.2991002
        -24.763865 -0.25408548 3.0612292 -25.75364 -0.25436273 2.7753255
        -26.803783 -0.25474203 2.4346967 -27.9201 -0.25522462 2.031465
        -29.109262 -0.25580433 1.5562444 -30.379038 -0.25646168 0.99766266
        -31.738523 -0.25715688 0.3416918 -33.19841 -0.25781995 -0.42933932
        -34.771114 -0.25833404 -1.3381882 -36.470676 -0.25851732 -2.4147625
        -38.311913 -0.25809437 -3.6989334 -40.308296 -0.25666377 -5.244135
        -42.467632 -0.25366285 -7.121461 -44.784164 -0.24833702 -9.423403
        -47.22577 -0.23974003 -12.265323 -49.714962 -0.22680107 -15.781118
        -52.10385 -0.20845553 -20.107502 -54.146835 -0.18400806 -25.34887
        -55.48149 -0.15358207 -31.515291 -55.63794 -0.11860588 -38.432026
        -54.105705 -0.08217427 -45.63755 -50.480423 -0.049108505 -52.318115
        -44.67554 -0.026025444 -57.355553 -37.114326 -0.020363957 -59.551132
        -28.7661 -0.032777786 -57.995724 -20.929333 -0.060856283 -52.42368
        -14.827482 -0.0998095 -43.33431 -11.228399 -0.14279142 -31.79096
        -10.286856 -0.18282235 -19.021149 0.063648224 -0.11709861 -0.2168808
        0.16893768 -0.16001587 -0.11390495 0.2268219 -0.19503628 0.0012350082
        0.24821281 -0.22246766 0.11035872 0.24526596 -0.24333346 0.20442581
        0.22822571 -0.25887862 0.28076863 -10.237686 -0.12815848 3.0890598
        -10.582561 -0.12335989 3.1659715 -10.93738 -0.11838331 3.2428463
        -11.302505 -0.11320934 3.319374 -11.678355 -0.10781551 3.3952081
        -12.065415 -0.10217585 3.4699566 -12.46424 -0.096260555 3.5431783
        -12.875463 -0.09003536 3.6143742 -13.299813 -0.08346116 3.682979
        -13.738112 -0.07649332 3.7483513 -14.191294 -0.06908101 3.8097608
        -14.660404 -0.061166316 3.866377 -15.146617 -0.052683484 3.9172535
        -15.651232 -0.04355765 3.961313 -16.175684 -0.033703502 3.9973302
        -16.72155 -0.023023827 4.023915 -17.290548 -0.011407159 4.0394917
        -17.884544 0.0012744907 4.042286 -18.505556 0.015168898 4.0302987
        -19.15576 0.030447796 4.0012913 -19.837488 0.0473121 3.9527621
        -20.553268 0.06599862 3.881921 -21.30582 0.08678859 3.785657
        -22.098099 0.11001825 3.6604939 -22.93333 0.13609686 3.5025508
        -23.815071 0.16552097 3.3074393 -24.747257 0.19890164 3.0701785
        -25.734303 0.23699799 2.7850528 -26.78118 0.28076005 2.4454308
        -27.893549 0.33138704 2.0435276 -29.077904 0.39040464 1.5700787
        -30.34177 0.45976982 1.0138887 -31.693926 0.54200625 0.36118227
        -33.144646 0.6403878 -0.40534985 -34.705795 0.7591677 -1.307934
        -36.390697 0.9038732 -2.3757038 -38.21326 1.0816535 -3.647405
        -40.18585 1.3016658 -5.174823 -42.31496 1.5754467 -7.026681
        -44.59345 1.9171342 -9.292096 -46.98799 2.343303 -12.081776
        -49.42061 2.8719754 -15.52346 -51.744537 3.5202274 -19.746246
        -53.718407 4.299431 -24.846237 -54.98874 5.207647 -30.826601
        -55.100746 6.219268 -37.51103 -53.564438 7.2743154 -44.4475
        -49.996666 8.272786 -50.848366 -44.32353 9.081764 -55.639187
        -36.962715 9.562566 -57.67344 -28.853647 9.615359 -56.084366
        -21.24849 9.214533 -50.618996 -15.326862 8.419722 -41.752434
        -11.832771 7.354382 -30.497944 -10.922161 6.1626434 -18.028744
        0.012598038 -0.023003578 -0.14518356 0.12358093 -0.07560539 -0.06372452
        0.18886948 -0.12296748 0.034814835 0.21779823 -0.16303039 0.13194561
        0.22163773 -0.19545853 0.21776772 0.21024609 -0.2209115 0.28867078
        -10.236669 0.0034482353 3.0964658 -10.581444 0.012690435 3.1737654
        -10.936131 0.0222814 3.2510455 -11.301092 0.032260012 3.3279963
        -11.67674 0.042671323 3.4042695 -12.063549 0.053567357 3.4794729
        -12.46207 0.06500795 3.5531647 -12.872931 0.07706189 3.6248448
        -13.296846 0.08980772 3.6939473 -13.734632 0.10333516 3.7598295
        -14.187211 0.11774638 3.8217614 -14.655618 0.13315776 3.878911
        -15.141009 0.14970161 3.9303324 -15.644671 0.16752848 3.9749484
        -16.168022 0.1868098 4.0115347 -16.712616 0.20774129 4.0387015
        -17.28015 0.23054668 4.054879 -17.872463 0.25548303 4.058294
        -18.491537 0.28284687 4.046956 -19.139507 0.31298232 4.0186357
        -19.818666 0.34629107 3.9708452 -20.531475 0.383246 3.900813
        -21.280586 0.42440724 3.8054562 -22.068867 0.47044408 3.6813347
        -22.899426 0.5221646 3.5246189 -23.775682 0.58054924 3.3309903
        -24.701391 0.64679974 3.0955646 -25.680738 0.7224015 2.812756
        -26.718393 0.8092044 2.4761155 -27.819626 0.90953195 2.0781064
        -28.990427 1.0263237 1.6098142 -30.237652 1.1633267 1.0605319
        -31.569193 1.3253443 0.4171836 -32.994164 1.5185616 -0.33653238
        -34.52292 1.7509592 -1.2213904 -36.16682 2.0328243 -2.2644033
        -37.93732 2.3773503 -3.5012312 -39.84378 2.8012786 -4.9791946
        -41.889217 3.3254728 -6.760602 -44.062923 3.9751897 -8.925533
        -46.328575 4.779592 -11.572307 -48.607273 5.769766 -14.812398
        -50.755913 6.974189 -18.755081 -52.544975 8.410174 -23.475178
        -53.645462 10.07045 -28.958635 -53.64278 11.905358 -35.026276
        -52.10073 13.804985 -41.251965 -48.691536 15.590853 -46.91664
        -43.374474 17.030481 -51.058643 -36.55054 17.884645 -52.666004
        -29.080868 17.978943 -50.981308 -22.09811 17.26681 -45.785965
        -16.667603 15.849062 -37.495262 -13.46879 13.937219 -26.99578
        -12.657276 11.780647 -15.3205 -0.041254044 0.035710335 -0.040851593
        0.0705986 -0.018036842 0.014200211 0.14121246 -0.07054806 0.09033394
        0.17746162 -0.11760902 0.17003775 0.18889427 -0.15741014 0.24312782
        0.18444347 -0.1897521 0.30510795 -10.234767 0.13347435 3.1077433
        -10.579373 0.14710149 3.1856737 -10.933846 0.16124505 3.2636147
        -11.298534 0.17596288 3.3412557 -11.673845 0.19132203 3.4182475
        -12.060244 0.20740005 3.4941971 -12.458265 0.22428608 3.5686617
        -12.868526 0.24208248 3.6411395 -13.291729 0.26090628 3.7110639
        -13.728673 0.280891 3.7777905 -14.180263 0.3021888 3.840589
        -14.647512 0.3249728 3.8986266 -15.131557 0.34943968 3.950957
        -15.633659 0.37581325 3.9965034 -16.155207 0.40434805 4.0340433
        -16.697723 0.43533427 4.0621905 -17.262863 0.46910352 4.0793786
        -17.852423 0.5060359 4.083843 -18.468336 0.5465696 4.0736046
        -19.112669 0.59121156 4.046449 -19.78764 0.6405531 3.9999106
        -20.49562 0.69528747 3.93125 -21.239147 0.75623477 3.8374276
        -22.020939 0.82437164 3.7150629 -22.843939 0.9008726 3.5604076
        -23.71133 0.9871579 3.3692563 -24.626595 1.0849624 3.1368773
        -25.593548 1.1964201 2.8578947 -26.616396 1.3241767 2.5261436
        -27.699802 1.4715371 2.1344817 -28.84897 1.6426601 1.6745396