# vtk DataFile Version 3.0
T01 + IGRF magnetic field in GSW coordinates
ASCII
DATASET STRUCTURED_GRID
DIMENSIONS     61    21    21
POINTS    26901 float
     -50.000000     -10.000000     -10.000000
     -49.000000     -10.000000     -10.000000
     -48.000000     -10.000000     -10.000000
     -47.000000     -10.000000     -10.000000
     -46.000000     -10.000000     -10.000000
     -45.000000     -10.000000     -10.000000
     -44.000000     -10.000000     -10.000000
     -43.000000     -10.000000     -10.000000
     -42.000000     -10.000000     -10.000000
     -41.000000     -10.000000     -10.000000
     -40.000000     -10.000000     -10.000000
     -39.000000     -10.000000     -10.000000
     -38.000000     -10.000000     -10.000000
     -37.000000     -10.000000     -10.000000
     -36.000000     -10.000000     -10.000000
     -35.000000     -10.000000     -10.000000
     -34.000000     -10.000000     -10.000000
     -33.000000     -10.000000     -10.000000
     -32.000000     -10.000000     -10.000000
     -31.000000     -10.000000     -10.000000
     -30.000000     -10.000000     -10.000000
     -29.000000     -10.000000     -10.000000
     -28.000000     -10.000000     -10.000000
     -27.000000     -10.000000     -10.000000
     -26.000000     -10.000000     -10.000000
     -25.000000     -10.000000     -10.000000
     -24.000000     -10.000000     -10.000000
     -23.000000     -10.000000     -10.000000
     -22.000000     -10.000000     -10.000000
     -21.000000     -10.000000     -10.000000
     -20.000000     -10.000000     -10.000000
     -19.000000     -10.000000     -10.000000
     -18.000000     -10.000000     -10.000000
     -17.000000     -10.000000     -10.000000
     -16.000000     -10.000000     -10.000000
     -15.000000     -10.000000     -10.000000
     -14.000000     -10.000000     -10.000000
     -13.000000     -10.000000     -10.000000
     -12.000000     -10.000000     -10.000000
     -11.000000     -10.000000     -10.000000
     -10.000000     -10.000000     -10.000000
      -9.000000     -10.000000     -10.000000
      -8.000000     -10.000000     -10.000000
      -7.000000     -10.000000     -10.000000
      -6.000000     -10.000000     -10.000000
      -5.000000     -10.000000     -10.000000
      -4.000000     -10.000000     -10.000000
      -3.000000     -10.000000     -10.000000
      -2.000000     -10.000000     -10.000000
      -1.000000     -10.000000     -10.000000
       0.000000     -10.000000     -10.000000
       1.000000     -10.000000     -10.000000
       2.000000     -10.000000     -10.000000
       3.000000     -10.000000     -10.000000
       4.000000     -10.000000     -10.000000
       5.000000     -10.000000     -10.000000
       6.000000     -10.000000     -10.000000
       7.000000     -10.000000     -10.000000
       8.000000     -10.000000     -10.000000
       9.000000     -10.000000     -10.000000
      10.000000     -10.000000     -10.000000
     -50.000000      -9.000000     -10.000000
     -49.000000      -9.000000     -10.000000
     -48.000000      -9.000000     -10.000000
     -47.000000      -9.000000     -10.000000
     -46.000000      -9.000000     -10.000000
     -45.000000      -9.000000     -10.000000
     -44.000000      -9.000000     -10.000000
     -43.000000      -9.000000     -10.000000
     -42.000000      -9.000000     -10.000000
     -41.000000      -9.000000     -10.000000
     -40.000000      -9.000000     -10.000000
     -39.000000      -9.000000     -10.000000
     -38.000000      -9.000000     -10.000000
     -37.000000      -9.000000     -10.000000
     -36.000000      -9.000000     -10.000000
     -35.000000      -9.000000     -10.000000
     -34.000000      -9.000000     -10.000000
     -33.000000      -9.000000     -10.000000
     -32.000000      -9.000000     -10.000000
     -31.000000      -9.000000     -10.000000
     -30.000000      -9.000000     -10.000000
     -29.000000      -9.000000     -10.000000
     -28.000000      -9.000000     -10.000000
     -27.000000      -9.000000     -10.000000
     -26.000000      -9.000000     -10.000000
     -25.000000      -9.000000     -10.000000
     -24.000000      -9.000000     -10.000000
     -23.000000      -9.000000     -10.000000
     -22.000000      -9.000000     -10.000000
     -21.000000      -9.000000     -10.000000
     -20.000000      -9.000000     -10.000000
     -19.000000      -9.000000     -10.000000
     -18.000000      -9.000000     -10.000000
     -17.000000      -9.000000     -10.000000
     -16.000000      -9.000000     -10.000000
     -15.000000      -9.000000     -10.000000
     -14.000000      -9.000000     -10.000000
     -13.000000      -9.000000     -10.000000
     -12.000000      -9.000000     -10.000000
     -11.000000      -9.000000     -10.000000
     -10.000000      -9.000000     -10.000000
      -9.000000      -9.000000     -10.000000
      -8.000000      -9.000000     -10.000000
      -7.000000      -9.000000     -10.000000
      -6.000000      -9.000000     -10.000000
      -5.000000      -9.000000     -10.000000
      -4.000000      -9.000000     -10.000000
      -3.000000      -9.000000     -10.000000
      -2.000000      -9.000000     -10.000000
      -1.000000      -9.000000     -10.000000
       0.000000      -9.000000     -10.000000
       1.000000      -9.000000     -10.000000
       2.000000      -9.000000     -10.000000
       3.000000      -9.000000     -10.000000
       4.000000      -9.000000     -10.000000
       5.000000      -9.000000     -10.000000
       6.000000      -9.000000     -10.000000
       7.000000      -9.000000     -10.000000
       8.000000      -9.000000     -10.000000
       9.000000      -9.000000     -10.000000
      10.000000      -9.000000     -10.000000
     -50.000000      -8.000000     -10.000000
     -49.000000      -8.000000     -10.000000
     -48.000000      -8.000000     -10.000000
     -47.000000      -8.000000     -10.000000
     -46.000000      -8.000000     -10.000000
     -45.000000      -8.000000     -10.000000
     -44.000000      -8.000000     -10.000000
     -43.000000      -8.000000     -10.000000
     -42.000000      -8.000000     -10.000000
     -41.000000      -8.000000     -10.000000
     -40.000000      -8.000000     -10.000000
     -39.000000      -8.000000     -10.000000
     -38.000000      -8.000000     -10.000000
     -37.000000      -8.000000     -10.000000
     -36.000000      -8.000000     -10.000000
     -35.000000      -8.000000     -10.000000
     -34.000000      -8.000000     -10.000000
     -33.000000      -8.000000     -10.000000
     -32.000000      -8.000000     -10.000000
     -31.000000      -8.000000     -10.000000
     -30.000000      -8.000000     -10.000000
     -29.000000      -8.000000     -10.000000
     -28.000000      -8.000000     -10.000000
     -27.000000      -8.000000     -10.000000
     -26.000000      -8.000000     -10.000000
     -25.000000      -8.000000     -10.000000
     -24.000000      -8.000000     -10.000000
     -23.000000      -8.000000     -10.000000
     -22.000000      -8.000000     -10.000000
     -21.000000      -8.000000     -10.000000
     -20.000000      -8.000000     -10.000000
     -19.000000      -8.000000     -10.000000
     -18.000000      -8.000000     -10.000000
     -17.000000      -8.000000     -10.000000
     -16.000000      -8.000000     -10.000000
     -15.000000      -8.000000     -10.000000
     -14.000000      -8.000000     -10.000000
     -13.000000      -8.000000     -10.000000
     -12.000000      -8.000000     -10.000000
     -11.000000      -8.000000     -10.000000
     -10.000000      -8.000000     -10.000000
      -9.000000      -8.000000     -10.000000
      -8.000000      -8.000000     -10.000000
      -7.000000      -8.000000     -10.000000
      -6.000000      -8.000000     -10.000000
      -5.000000      -8.000000     -10.000000
      -4.000000      -8.000000     -10.000000
      -3.000000      -8.000000     -10.000000
      -2.000000      -8.000000     -10.000000
      -1.000000      -8.000000     -10.000000
       0.000000      -8.000000     -10.000000
       1.000000      -8.000000     -10.000000
       2.000000      -8.000000     -10.000000
       3.000000      -8.000000     -10.000000
       4.000000      -8.000000     -10.000000
       5.000000      -8.000000     -10.000000
       6.000000      -8.000000     -10.000000
       7.000000      -8.000000     -10.000000
       8.000000      -8.000000     -10.000000
       9.000000      -8.000000     -10.000000
      10.000000      -8.000000     -10.000000
     -50.000000      -7.000000     -10.000000
     -49.000000      -7.000000     -10.000000
     -48.000000      -7.000000     -10.000000
     -47.000000      -7.000000     -10.000000
     -46.000000      -7.000000     -10.000000
     -45.000000      -7.000000     -10.000000
     -44.000000      -7.000000     -10.000000
     -43.000000      -7.000000     -10.000000
     -42.000000      -7.000000     -10.000000
     -41.000000      -7.000000     -10.000000
     -40.000000      -7.000000     -10.000000
     -39.000000      -7.000000     -10.000000
     -38.000000      -7.000000     -10.000000
     -37.000000      -7.000000     -10.000000
     -36.000000      -7.000000     -10.000000
     -35.000000      -7.000000     -10.000000
     -34.000000      -7.000000     -10.000000
     -33.000000      -7.000000     -10.000000
     -32.000000      -7.000000     -10.000000
     -31.000000      -7.000000     -10.000000
     -30.000000      -7.000000     -10.000000
     -29.000000      -7.000000     -10.000000
     -28.000000      -7.000000     -10.000000
     -27.000000      -7.000000     -10.000000
     -26.000000      -7.000000     -10.000000
     -25.000000      -7.000000     -10.000000
[...]
POINT_DATA    26901
VECTORS B_total float
  -9.0772686E+00  -1.0906321E+00   3.2792680E+00
  -9.3931370E+00  -1.1211126E+00   3.3633423E+00
  -9.7185583E+00  -1.1532998E+00   3.4480031E+00
  -1.0053843E+01  -1.1874011E+00   3.5330296E+00
  -1.0399346E+01  -1.2236518E+00   3.6181750E+00
  -1.0755471E+01  -1.2623203E+00   3.7031646E+00
  -1.1122675E+01  -1.3037106E+00   3.7876892E+00
  -1.1501484E+01  -1.3481666E+00   3.8714023E+00
  -1.1892492E+01  -1.3960780E+00   3.9539123E+00
  -1.2296378E+01  -1.4478841E+00   4.0347733E+00
  -1.2713902E+01  -1.5040803E+00   4.1134791E+00
  -1.3145920E+01  -1.5652242E+00   4.1894493E+00
  -1.3593383E+01  -1.6319427E+00   4.2620187E+00
  -1.4057343E+01  -1.7049398E+00   4.3304234E+00
  -1.4538955E+01  -1.7850041E+00   4.3937869E+00
  -1.5039465E+01  -1.8730190E+00   4.4511037E+00
  -1.5560214E+01  -1.9699724E+00   4.5012264E+00
  -1.6102619E+01  -2.0769677E+00   4.5428481E+00
  -1.6668161E+01  -2.1952369E+00   4.5744958E+00
  -1.7258368E+01  -2.3261552E+00   4.5945144E+00
  -1.7874784E+01  -2.4712555E+00   4.6010661E+00
  -1.8518957E+01  -2.6322520E+00   4.5921254E+00
  -1.9192392E+01  -2.8110595E+00   4.5654836E+00
  -1.9896536E+01  -3.0098245E+00   4.5187535E+00
  -2.0632738E+01  -3.2309582E+00   4.4493771E+00
  -2.1402222E+01  -3.4771814E+00   4.3546305E+00
  -2.2206018E+01  -3.7515635E+00   4.2316332E+00
  -2.3044931E+01  -4.0575943E+00   4.0773435E+00
  -2.3919434E+01  -4.3992381E+00   3.8885646E+00
  -2.4829540E+01  -4.7810102E+00   3.6619611E+00
  -2.5774645E+01  -5.2080507E+00   3.3940992E+00
  -2.6753315E+01  -5.6862030E+00   3.0815351E+00
  -2.7763031E+01  -6.2220864E+00   2.7209654E+00
  -2.8799944E+01  -6.8231692E+00   2.3094602E+00
  -2.9858610E+01  -7.4978156E+00   1.8447615E+00
  -3.0931784E+01  -8.2552891E+00   1.3256272E+00
  -3.2010216E+01  -9.1056747E+00   7.5216657E-01
  -3.3082455E+01  -1.0059629E+01   1.2611783E-01
  -3.4134575E+01  -1.1127842E+01  -5.4895663E-01
  -3.5149742E+01  -1.2320054E+01  -1.2675331E+00
  -3.6107563E+01  -1.3643390E+01  -2.0219023E+00
  -3.6983448E+01  -1.5099901E+01  -2.8015800E+00
  -3.7748238E+01  -1.6683216E+01  -3.5920432E+00
  -3.8369003E+01  -1.8374519E+01  -4.3726053E+00
  -3.8812000E+01  -2.0138603E+01  -5.1136146E+00
  -3.9048595E+01  -2.1921051E+01  -5.7737417E+00
  -3.9064255E+01  -2.3648201E+01  -6.2987447E+00
  -3.8869370E+01  -2.5231358E+01  -6.6231785E+00
  -3.8509052E+01  -2.6576019E+01  -6.6760931E+00
  -3.8068256E+01  -2.7595278E+01  -6.3903608E+00
  -3.4548306E+01  -2.5910507E+01  -5.2036724E+00
  -8.9218497E-02  -3.8635159E-01   4.1385174E-01
  -7.7377796E-02  -4.0759659E-01   4.0290880E-01
  -6.0182333E-02  -4.2413139E-01   3.9561701E-01
  -3.9882183E-02  -4.3466759E-01   3.9270973E-01
  -1.8895149E-02  -4.3892765E-01   3.9417887E-01
   6.8521500E-04  -4.3746185E-01   3.9942431E-01
   1.7415047E-02  -4.3140411E-01   4.0746498E-01
   3.0550480E-02  -4.2210484E-01   4.1721916E-01
   3.9969444E-02  -4.1089344E-01   4.2769587E-01
   4.5958519E-02  -3.9886999E-01   4.3811601E-01
  -9.1277475E+00  -1.0197343E+00   3.2873394E+00
  -9.4461298E+00  -1.0479792E+00   3.3704276E+00
  -9.7742977E+00  -1.0778347E+00   3.4539838E+00
  -1.0112592E+01  -1.1094936E+00   3.5377820E+00
  -1.0461400E+01  -1.1431758E+00   3.6215708E+00
  -1.0821158E+01  -1.1791312E+00   3.7050705E+00
  -1.1192370E+01  -1.2176429E+00   3.7879665E+00
  -1.1575608E+01  -1.2590319E+00   3.8699062E+00
  -1.1971517E+01  -1.3036618E+00   3.9504900E+00
  -1.2380832E+01  -1.3519431E+00   4.0292645E+00
  -1.2804383E+01  -1.4043394E+00   4.1057100E+00
  -1.3243097E+01  -1.4613733E+00   4.1792336E+00
  -1.3698010E+01  -1.5236338E+00   4.2491503E+00
  -1.4170267E+01  -1.5917836E+00   4.3146744E+00
  -1.4661122E+01  -1.6665673E+00   4.3748970E+00
  -1.5171939E+01  -1.7488219E+00   4.4287772E+00
  -1.5704186E+01  -1.8394862E+00   4.4751196E+00
  -1.6259424E+01  -1.9396136E+00   4.5125599E+00
  -1.6839293E+01  -2.0503855E+00   4.5395522E+00
  -1.7445499E+01  -2.1731265E+00   4.5543561E+00
  -1.8079782E+01  -2.3093245E+00   4.5550280E+00
  -1.8743917E+01  -2.4606509E+00   4.5394182E+00
  -1.9439661E+01  -2.6289885E+00   4.5051661E+00
  -2.0168749E+01  -2.8164651E+00   4.4497042E+00
  -2.0932863E+01  -3.0254927E+00   4.3702579E+00
  -2.1733604E+01  -3.2588205E+00   4.2638397E+00
  -2.2572447E+01  -3.5195839E+00   4.1272488E+00
  -2.3450703E+01  -3.8113911E+00   3.9570501E+00
  -2.4369425E+01  -4.1383982E+00   3.7495623E+00
  -2.5329294E+01  -4.5054049E+00   3.5008512E+00
  -2.6330463E+01  -4.9179692E+00   3.2067437E+00
  -2.7372332E+01  -5.3825245E+00   2.8628888E+00
  -2.8453302E+01  -5.9065151E+00   2.4648731E+00
  -2.9570515E+01  -6.4985437E+00   2.0084083E+00
  -3.0719555E+01  -7.1685152E+00   1.4895811E+00
  -3.1894197E+01  -7.9277530E+00   9.0511417E-01
  -3.3086056E+01  -8.7890434E+00   2.5260139E-01
  -3.4284180E+01  -9.7665081E+00  -4.6930933E-01
  -3.5474403E+01  -1.0875148E+01  -1.2608321E+00
  -3.6638264E+01  -1.2129813E+01  -2.1209033E+00
  -3.7751579E+01  -1.3543339E+01  -3.0467601E+00
  -3.8782673E+01  -1.5123510E+01  -4.0328116E+00
  -3.9691044E+01  -1.6868723E+01  -5.0682697E+00
  -4.0427479E+01  -1.8762415E+01  -6.1333089E+00
  -4.0937363E+01  -2.0767075E+01  -7.1939592E+00
  -4.1168629E+01  -2.2819298E+01  -8.1970205E+00
  -4.1084808E+01  -2.4828150E+01  -9.0671148E+00
  -4.0681686E+01  -2.6679436E+01  -9.7085314E+00
  -4.0003235E+01  -2.8247417E+01  -1.0013734E+01
  -3.9151039E+01  -2.9413521E+01  -9.8784809E+00
  -3.8281258E+01  -3.0088036E+01  -9.2201595E+00
  -3.7523159E+01  -3.0177418E+01  -7.9796009E+00
  -9.9377155E-02  -4.1443062E-01   3.6239862E-01
  -7.5797558E-02  -4.3601036E-01   3.5183144E-01
  -4.8223019E-02  -4.4963646E-01   3.4821939E-01
  -2.0223618E-02  -4.5500755E-01   3.5136223E-01
   5.2533150E-03  -4.5303917E-01   3.6008739E-01
   2.6320934E-02  -4.4536972E-01   3.7271881E-01
   4.2186260E-02  -4.3387890E-01   3.8750935E-01
   5.2920341E-02  -4.2030525E-01   4.0295625E-01
   5.9145451E-02  -4.0606117E-01   4.1793847E-01
  -9.1766539E+00  -9.4586790E-01   3.2963095E+00
  -9.4974394E+00  -9.7160035E-01   3.3785305E+00
  -9.8282261E+00  -9.9882245E-01   3.4611094E+00
  -1.0169379E+01  -1.0277110E+00   3.5438161E+00
  -1.0521319E+01  -1.0584677E+00   3.6263945E+00
  -1.0884517E+01  -1.0913211E+00   3.7085590E+00
  -1.1259513E+01  -1.1265310E+00   3.7899902E+00
  -1.1646920E+01  -1.1643921E+00   3.8703289E+00
  -1.2047437E+01  -1.2052375E+00   3.9491677E+00
  -1.2461852E+01  -1.2494450E+00   4.0260434E+00
  -1.2891054E+01  -1.2974409E+00   4.1004262E+00
  -1.3336042E+01  -1.3497072E+00   4.1717067E+00
  -1.3797931E+01  -1.4067878E+00   4.2391815E+00
  -1.4277948E+01  -1.4692959E+00   4.3020401E+00
  -1.4777452E+01  -1.5379230E+00   4.3593459E+00
  -1.5297913E+01  -1.6134478E+00   4.4100184E+00
  -1.5840924E+01  -1.6967472E+00   4.4528146E+00
  -1.6408184E+01  -1.7888088E+00   4.4863138E+00
  -1.7001490E+01  -1.8907447E+00   4.5088983E+00
  -1.7622719E+01  -2.0038078E+00   4.5187402E+00
  -1.8273819E+01  -2.1294127E+00   4.5137925E+00
  -1.8956779E+01  -2.2691586E+00   4.4917779E+00
  -1.9673626E+01  -2.4248590E+00   4.4501858E+00
  -2.0426390E+01  -2.5985787E+00   4.3862658E+00
  -2.1217100E+01  -2.7926793E+00   4.2970209E+00
  -2.2047762E+01  -3.0098681E+00   4.1791978E+00
  -2.2920332E+01  -3.2532785E+00   4.0292616E+00
  -2.3836683E+01  -3.5265460E+00   3.8433666E+00
  -2.4798527E+01  -3.8339086E+00   3.6173213E+00
  -2.5807316E+01  -4.1803288E+00   3.3465514E+00
  -2.6864098E+01  -4.5716348E+00   3.0260832E+00
  -2.7969311E+01  -5.0146871E+00   2.6505651E+00
  -2.9122551E+01  -5.5175738E+00   2.2143321E+00
  -3.0322311E+01  -6.0898399E+00   1.7115271E+00
  -3.1565697E+01  -6.7427416E+00   1.1362548E+00
  -3.2848106E+01  -7.4895010E+00   4.8271561E-01
  -3.4162807E+01  -8.3455181E+00  -2.5471652E-01
  -3.5500278E+01  -9.3284273E+00  -1.0815299E+00
  -3.6847095E+01  -1.0457797E+01  -2.0031769E+00
  -3.8184147E+01  -1.1754208E+01  -3.0250418E+00
  -3.9484074E+01  -1.3237288E+01  -4.1518955E+00
  -4.0708031E+01  -1.4922240E+01  -5.3861427E+00
  -4.1802734E+01  -1.6814510E+01  -6.7241068E+00
  -4.2699257E+01  -1.8902493E+01  -8.1498060E+00
  -4.3316208E+01  -2.1149014E+01  -9.6265202E+00
  -4.3569675E+01  -2.3483332E+01  -1.1087824E+01
  -4.3391418E+01  -2.5796947E+01  -1.2431505E+01
  -4.2753696E+01  -2.7946939E+01  -1.3520644E+01
  -4.1694767E+01  -2.9770237E+01  -1.4195785E+01
  -4.0335564E+01  -3.1108948E+01  -1.4298730E+01
  -3.8877476E+01  -3.1841492E+01  -1.3702955E+01
  -3.7576996E+01  -3.1910067E+01  -1.2341043E+01
  -2.8396084E+01  -2.4311241E+01  -7.8265738E+00
  -9.6195221E-02  -4.4100761E-01   2.9642773E-01
  -5.9075356E-02  -4.5891380E-01   2.9170513E-01
  -2.2033691E-02  -4.6619797E-01   2.9718208E-01
   1.0815620E-02  -4.6421528E-01   3.1078386E-01
   3.7101746E-02  -4.5527077E-01   3.2972288E-01
   5.6049347E-02  -4.4187546E-01   3.5129523E-01
   6.8080902E-02  -4.2625618E-01   3.7327194E-01
   7.4288368E-02  -4.1011333E-01   3.9411795E-01
  -9.2229280E+00  -8.6942363E-01   3.3060322E+00
  -9.5459557E+00  -8.9239919E-01   3.3875122E+00
  -9.8791800E+00  -9.1672176E-01   3.4692512E+00
  -1.0222991E+01  -9.4255030E-01   3.5510139E+00
  -1.0577836E+01  -9.7006553E-01   3.6325400E+00
  -1.0944216E+01  -9.9947298E-01   3.7135394E+00
  -1.1322707E+01  -1.0310061E+00   3.7936869E+00
  -1.1713964E+01  -1.0649296E+00   3.8726168E+00
  -1.2118725E+01  -1.1015437E+00   3.9499145E+00
  -1.2537830E+01  -1.1411881E+00   4.0251074E+00
  -1.2972226E+01  -1.1842477E+00   4.0976534E+00
  -1.3422976E+01  -1.2311578E+00   4.1669297E+00
  -1.3891265E+01  -1.2824105E+00   4.2322140E+00
  -1.4378405E+01  -1.3385620E+00   4.2926731E+00
  -1.4885841E+01  -1.4002408E+00   4.3473411E+00
  -1.5415152E+01  -1.4681566E+00   4.3950996E+00
  -1.5968042E+01  -1.5431110E+00   4.4346614E+00
  -1.6546347E+01  -1.6260099E+00   4.4645495E+00
  -1.7152006E+01  -1.7178771E+00   4.4830766E+00
  -1.7787075E+01  -1.8198717E+00   4.4883323E+00
  -1.8453684E+01  -1.9333076E+00   4.4781685E+00
  -1.9154055E+01  -2.0596788E+00   4.4501843E+00
  -1.9890461E+01  -2.2006903E+00   4.4017224E+00
  -2.0665239E+01  -2.3582950E+00   4.3298545E+00
  -2.1480774E+01  -2.5347447E+00   4.2313628E+00
  -2.2339483E+01  -2.7326400E+00   4.1027293E+00
  -2.3243832E+01  -2.9550185E+00   3.9400854E+00
  -2.4196278E+01  -3.2054384E+00   3.7391725E+00
  -2.5199251E+01  -3.4880924E+00   3.4952745E+00
  -2.6255053E+01  -3.8079472E+00   3.2031569E+00
  -2.7365746E+01  -4.1709127E+00   2.8570099E+00
  -2.8532969E+01  -4.5840468E+00   2.4504135E+00
  -2.9757753E+01  -5.0558119E+00   1.9763448E+00
  -3.1040289E+01  -5.5963798E+00   1.4271979E+00
  -3.2379665E+01  -6.2180009E+00   7.9480952E-01
  -3.3773552E+01  -6.9354062E+00   7.0402384E-02
  -3.5217712E+01  -7.7662163E+00  -7.5558019E-01
  -3.6705086E+01  -8.7312202E+00  -1.6938353E+00
  -3.8224258E+01  -9.8543510E+00  -2.7566266E+00
  -3.9756817E+01  -1.1161978E+01  -3.9580448E+00
  -4.1273415E+01  -1.2681044E+01  -5.3134608E+00
  -4.2728661E+01  -1.4435375E+01  -6.8372140E+00
  -4.4055767E+01  -1.6439535E+01  -8.5373163E+00
  -4.5163208E+01  -1.8689831E+01  -1.0406221E+01
  -4.5936718E+01  -2.1152899E+01  -1.2407721E+01
  -4.6250984E+01  -2.3754025E+01  -1.4462111E+01
  -4.5993793E+01  -2.6368870E+01  -1.6434460E+01
  -4.5101837E+01  -2.8824829E+01  -1.8133307E+01
  -4.3600357E+01  -3.0917332E+01  -1.9326977E+01
  -4.1631561E+01  -3.2442574E+01  -1.9779776E+01
  -3.9455376E+01  -3.3240833E+01  -1.9301435E+01
  -3.7413227E+01  -3.3235794E+01  -1.7792801E+01
  -3.5862850E+01  -3.2454041E+01  -1.5268787E+01
  -7.0631065E+00  -6.5005770E+00  -2.1658564E+00
  -7.3677063E-02  -4.5759392E-01   2.2338200E-01
  -2.5238991E-02  -4.6811485E-01   2.3172760E-01
   1.6697884E-02  -4.6719933E-01   2.5165176E-01
   4.9176216E-02  -4.5793629E-01   2.7875137E-01
   7.1578979E-02  -4.4351768E-01   3.0895138E-01
   8.4884644E-02  -4.2669582E-01   3.3908367E-01
   9.0838432E-02  -4.0946531E-01   3.6709809E-01
  -9.2654953E+00  -7.9073834E-01   3.3161266E+00
  -9.5905600E+00  -8.1074566E-01   3.3969920E+00
  -9.9259949E+00  -8.3193839E-01   3.4780290E+00
  -1.0272213E+01  -8.5445571E-01   3.5589981E+00
  -1.0629682E+01  -8.7845606E-01   3.6396353E+00
  -1.0998934E+01  -9.0411949E-01   3.7196457E+00
  -1.1380574E+01  -9.3165046E-01   3.7986989E+00
  -1.1775291E+01  -9.6128124E-01   3.8764229E+00
  -1.2183867E+01  -9.9327523E-01   3.9523966E+00
  -1.2607184E+01  -1.0279310E+00   4.0261383E+00
  -1.3046241E+01  -1.0655869E+00   4.0970955E+00
  -1.3502156E+01  -1.1066266E+00   4.1646309E+00
  -1.3976180E+01  -1.1514843E+00   4.2280068E+00
  -1.4469701E+01  -1.2006513E+00   4.2863665E+00
  -1.4984244E+01  -1.2546844E+00   4.3387165E+00
  -1.5521483E+01  -1.3142139E+00   4.3839073E+00
  -1.6083233E+01  -1.3799535E+00   4.4206066E+00
  -1.6671446E+01  -1.4527118E+00   4.4472857E+00
  -1.7288202E+01  -1.5334065E+00   4.4621940E+00
  -1.7935711E+01  -1.6230795E+00   4.4633427E+00
  -1.8616291E+01  -1.7229182E+00   4.4484882E+00
  -1.9332369E+01  -1.8342782E+00   4.4151173E+00
  -2.0086470E+01  -1.9587147E+00   4.3604321E+00
  -2.0881220E+01  -2.0980201E+00   4.2813344E+00
  -2.1719351E+01  -2.2542751E+00   4.1743999E+00
  -2.2603697E+01  -2.4298975E+00   4.0358543E+00
  -2.3537216E+01  -2.6277361E+00   3.8615074E+00
  -2.4522984E+01  -2.8511539E+00   3.6466966E+00
  -2.5564152E+01  -3.1041522E+00   3.3861909E+00
  -2.6663919E+01  -3.3915193E+00   3.0740995E+00
  -2.7825430E+01  -3.7190175E+00   2.7037673E+00
  -2.9051645E+01  -4.0936189E+00   2.2676837E+00
  -3.0345205E+01  -4.5238028E+00   1.7574054E+00
  -3.1708267E+01  -5.0199308E+00   1.1634640E+00
  -3.3142303E+01  -5.5947089E+00   4.7521514E-01
  -3.4647835E+01  -6.2637300E+00  -3.1945276E-01
  -3.6223888E+01  -7.0460730E+00  -1.2346393E+00
  -3.7866974E+01  -7.9648409E+00  -2.2872121E+00
  -3.9569038E+01  -9.0474434E+00  -3.4977634E+00
  -4.1313980E+01  -1.0325251E+01  -4.8913574E+00
  -4.3072197E+01  -1.1832027E+01  -6.4972310E+00
  -4.4793137E+01  -1.3600349E+01  -8.3461075E+00
  -4.6396893E+01  -1.5654987E+01  -1.0463285E+01
  -4.7767479E+01  -1.8002533E+01  -1.2855816E+01
  -4.8752514E+01  -2.0617336E+01  -1.5493357E+01
  -4.9175507E+01  -2.3425430E+01  -1.8284824E+01
  -4.8866524E+01  -2.6291504E+01  -2.1057718E+01
  -4.7711906E+01  -2.9016552E+01  -2.3551502E+01
  -4.5713409E+01  -3.1354904E+01  -2.5437605E+01
  -4.3035007E+01  -3.3054688E+01  -2.6372770E+01
  -4.0009575E+01  -3.3914715E+01  -2.6076424E+01
  -3.7088985E+01  -3.3838470E+01  -2.4405109E+01
  -3.4747963E+01  -3.2861305E+01  -2.1390360E+01
  -3.3378586E+01  -3.1137602E+01  -1.7221176E+01
  -9.3783379E-02  -4.3976974E-01   1.4628983E-01
  -3.1382561E-02  -4.5550156E-01   1.5741539E-01
   2.1496773E-02  -4.5754433E-01   1.8473244E-01
   6.1243057E-02  -4.4972610E-01   2.2157383E-01
   8.7553978E-02  -4.3595791E-01   2.6200533E-01
   1.0218716E-01  -4.1946125E-01   3.0168009E-01
   1.0775375E-01  -4.0252018E-01   3.3793998E-01
  -9.3033428E+00  -7.1011436E-01   3.3260703E+00
  -9.6301975E+00  -7.2697443E-01   3.4064424E+00
  -9.9675732E+00  -7.4484241E-01   3.4869108E+00
  -1.0315900E+01  -7.6383632E-01   3.5672338E+00
  -1.0675668E+01  -7.8409046E-01   3.6471429E+00
  -1.1047431E+01  -8.0575746E-01   3.7263389E+00
  -1.1431823E+01  -8.2901102E-01   3.8044875E+00
  -1.1829560E+01  -8.5404819E-01   3.8812110E+00
  -1.2241461E+01  -8.8109273E-01   3.9560823E+00
  -1.2668447E+01  -9.1039872E-01   4.0286117E+00
  -1.3111559E+01  -9.4225413E-01   4.0982370E+00
  -1.3571969E+01  -9.7698593E-01   4.1643090E+00
  -1.4050982E+01  -1.0149646E+00   4.2260737E+00
  -1.4550051E+01  -1.0566107E+00   4.2826567E+00
  -1.5070777E+01  -1.1024010E+00   4.3330393E+00
  -1.5614915E+01  -1.1528763E+00   4.3760405E+00
  -1.6184372E+01  -1.2086506E+00   4.4102912E+00
  -1.6781212E+01  -1.2704217E+00   4.4342160E+00
  -1.7407639E+01  -1.3389833E+00   4.4460073E+00
  -1.8066006E+01  -1.4152402E+00   4.4436059E+00
  -1.8758793E+01  -1.5002260E+00   4.4246831E+00
  -1.9488623E+01  -1.5951273E+00   4.3866234E+00
  -2.0258251E+01  -1.7013105E+00   4.3265014E+00
  -2.1070570E+01  -1.8203588E+00   4.2410665E+00
  -2.1928638E+01  -1.9541199E+00   4.1267042E+00
  -2.2835682E+01  -2.1047542E+00   3.9794030E+00
  -2.3795141E+01  -2.2748239E+00   3.7946758E+00
  -2.4810675E+01  -2.4673762E+00   3.5674813E+00
  -2.5886154E+01  -2.6860645E+00   3.2921042E+00
  -2.7025661E+01  -2.9353004E+00   2.9620266E+00
  -2.8233435E+01  -3.2204442E+00   2.5697780E+00
  -2.9513802E+01  -3.5480545E+00   2.1067839E+00
  -3.0871094E+01  -3.9262061E+00   1.5631889E+00
  -3.2309589E+01  -4.3649054E+00   9.2763525E-01
  -3.3833405E+01  -4.8766136E+00   1.8691313E-01
  -3.5446308E+01  -5.4768887E+00  -6.7463040E-01
  -3.7151234E+01  -6.1851373E+00  -1.6760092E+00
  -3.8949135E+01  -7.0253782E+00  -2.8409564E+00
  -4.0836586E+01  -8.0268393E+00  -4.1995549E+00
  -4.2801460E+01  -9.2240238E+00  -5.7897296E+00
  -4.4815903E+01  -1.0655622E+01  -7.6575155E+00
  -4.6826283E+01  -1.2361330E+01  -9.8543081E+00
  -4.8741108E+01  -1.4375336E+01  -1.2428522E+01
  -5.0419834E+01  -1.6715296E+01  -1.5408919E+01
  -5.1668518E+01  -1.9366182E+01  -1.8778074E+01
  -5.2251385E+01  -2.2260529E+01  -2.2437916E+01
  -5.1927567E+01  -2.5260212E+01  -2.6176065E+01
  -5.0517097E+01  -2.8149269E+01  -2.9649479E+01
  -4.7985603E+01  -3.0649822E+01  -3.2406860E+01
  -4.4516850E+01  -3.2468521E+01  -3.3963379E+01
  -4.0530182E+01  -3.3366631E+01  -3.3917130E+01
  -3.6613998E+01  -3.3229000E+01  -3.2065075E+01
  -3.3388416E+01  -3.2099651E+01  -2.8463278E+01
  -3.1353870E+01  -3.0165129E+01  -2.3398975E+01
  -2.0244751E+01  -1.8308725E+01  -1.1321028E+01
  -4.2749405E-02  -4.2333221E-01   8.0049515E-02
   2.2951126E-02  -4.3098831E-01   1.1475277E-01
   7.1126938E-02  -4.2726326E-01   1.6199112E-01
   1.0196495E-01  -4.1663551E-01   2.1346951E-01
   1.1821270E-01  -4.0272093E-01   2.6338625E-01
   1.2351227E-01  -3.8801146E-01   3.0839920E-01
  -9.3355665E+00  -6.2784100E-01   3.3352962E+00
  -9.6639328E+00  -6.4140648E-01   3.4152861E+00
  -1.0002943E+01  -6.5578938E-01   3.4953117E+00
  -1.0353044E+01  -6.7108536E-01   3.5751276E+00
  -1.0714742E+01  -6.8740314E-01   3.6544621E+00
  -1.1088614E+01  -7.0486665E-01   3.7330127E+00
  -1.1475313E+01  -7.2361654E-01   3.8104410E+00
  -1.1875583E+01  -7.4381286E-01   3.8863657E+00
  -1.2290268E+01  -7.6563740E-01   3.9603534E+00
  -1.2720325E+01  -7.8929639E-01   4.0319080E+00
  -1.3166832E+01  -8.1502438E-01   4.1004601E+00
  -1.3631001E+01  -8.4308755E-01   4.1653485E+00
  -1.4114187E+01  -8.7378812E-01   4.2258072E+00
  -1.4617896E+01  -9.0746921E-01   4.2809443E+00
  -1.5143791E+01  -9.4452107E-01   4.3297215E+00
  -1.5693699E+01  -9.8538667E-01   4.3709316E+00
  -1.6269608E+01  -1.0305701E+00   4.4031734E+00
  -1.6873669E+01  -1.0806454E+00   4.4248309E+00
  -1.7508200E+01  -1.1362672E+00   4.4340482E+00
  -1.8175673E+01  -1.1981834E+00   4.4287066E+00
  -1.8878716E+01  -1.2672526E+00   4.4064045E+00
  -1.9620111E+01  -1.3444613E+00   4.3644357E+00
  -2.0402821E+01  -1.4309522E+00   4.2997694E+00
  -2.1229977E+01  -1.5280535E+00   4.2090192E+00
  -2.2104929E+01  -1.6373233E+00   4.0884056E+00
  -2.3031252E+01  -1.7605916E+00   3.9337106E+00
  -2.4012825E+01  -1.9000411E+00   3.7401838E+00
  -2.5053829E+01  -2.0582833E+00   3.5024471E+00
  -2.6158815E+01  -2.2384703E+00   3.2143526E+00
  -2.7332685E+01  -2.4444356E+00   2.8688161E+00
  -2.8580715E+01  -2.6808751E+00   2.4576232E+00
  -2.9908535E+01  -2.9535859E+00   1.9712135E+00
  -3.1322147E+01  -3.2697821E+00   1.3984115E+00