# vtk DataFile Version 3.0
SM polar seed points transformed to GSW coordinates
ASCII
DATASET POLYDATA
POINTS      288 float
       1.142824       0.000000       0.971573
       1.118754       0.194114       0.980158
       1.048183       0.375000       1.005329
       0.935921       0.530330       1.045371
       0.789619       0.649519       1.097555
       0.619247       0.724444       1.158324
       0.436415       0.750000       1.223537
       0.253583       0.724444       1.288750
       0.083210       0.649519       1.349519
      -0.063092       0.530330       1.401702
      -0.175354       0.375000       1.441744
      -0.245924       0.194114       1.466915
      -0.269994      -0.000000       1.475501
      -0.245924      -0.194114       1.466915
      -0.175354      -0.375000       1.441744
      -0.063092      -0.530330       1.401702
       0.083210      -0.649519       1.349519
       0.253583      -0.724444       1.288750
       0.436415      -0.750000       1.223537
       0.619247      -0.724444       1.158324
       0.789619      -0.649519       1.097555
       0.935921      -0.530330       1.045371
       1.048183      -0.375000       1.005329
       1.118754      -0.194114       0.980158
       1.053797       0.000000       1.067479
       1.033452       0.164072       1.074736
       0.973803       0.316964       1.096012
       0.878915       0.448254       1.129856
       0.755256       0.548997       1.173964
       0.611251       0.612327       1.225328
       0.456714       0.633927       1.280448
       0.302178       0.612327       1.335569
       0.158173       0.548997       1.386933
       0.034513       0.448254       1.431041
      -0.060375       0.316964       1.464885
      -0.120024       0.164073       1.486161
      -0.140369      -0.000000       1.493418
      -0.120024      -0.164073       1.486161
      -0.060375      -0.316964       1.464885
       0.034513      -0.448254       1.431041
       0.158173      -0.548997       1.386933
       0.302178      -0.612327       1.335569
       0.456714      -0.633927       1.280448
       0.611251      -0.612327       1.225328
       0.755256      -0.548997       1.173964
       0.878915      -0.448254       1.129856
       0.973803      -0.316964       1.096012
       1.033452      -0.164073       1.074736
       0.956750       0.000000       1.155262
       0.940285       0.132782       1.161134
       0.892012       0.256515       1.178353
       0.815220       0.362767       1.205743
       0.715144       0.444297       1.241438
       0.598602       0.495549       1.283007
       0.473538       0.513030       1.327615
       0.348473       0.495549       1.372224
       0.231931       0.444297       1.413792
       0.131855       0.362767       1.449488
       0.055064       0.256515       1.476878
       0.006790       0.132782       1.494096
      -0.009675      -0.000000       1.499969
       0.006790      -0.132782       1.494096
       0.055063      -0.256515       1.476878
       0.131855      -0.362767       1.449488
       0.231932      -0.444297       1.413792
       0.348473      -0.495549       1.372224
       0.473538      -0.513030       1.327615
       0.598602      -0.495549       1.283007
       0.715144      -0.444297       1.241438
       0.815220      -0.362767       1.205743
       0.892012      -0.256515       1.178353
       0.940285      -0.132782       1.161134
       0.852422       0.000000       1.234252
       0.839962       0.100481       1.238696
       0.803432       0.194114       1.251726
       0.745321       0.274519       1.272453
       0.669590       0.336216       1.299465
       0.581398       0.375000       1.330921
       0.486757       0.388229       1.364678
       0.392116       0.375000       1.398435
       0.303925       0.336216       1.429891
       0.228194       0.274519       1.456903
       0.170083       0.194114       1.477630
       0.133553       0.100481       1.490660
       0.121093      -0.000000       1.495104
       0.133553      -0.100481       1.490660
       0.170083      -0.194114       1.477630
       0.228194      -0.274519       1.456903
       0.303925      -0.336216       1.429891
       0.392116      -0.375000       1.398435
       0.486757      -0.388229       1.364678
       0.581398      -0.375000       1.330921
       0.669590      -0.336216       1.299465
       0.745321      -0.274519       1.272453
       0.803432      -0.194114       1.251726
       0.839962      -0.100481       1.238696
       0.741606       0.000000       1.303848
       0.733246       0.067415       1.306830
       0.708737       0.130236       1.315572
       0.669749       0.184182       1.329478
       0.618939       0.225576       1.347602
       0.559769       0.251597       1.368706
       0.496272       0.260472       1.391355
       0.432775       0.251597       1.414003
       0.373606       0.225576       1.435108
       0.322796       0.184182       1.453231
       0.283808       0.130236       1.467137
       0.259299       0.067415       1.475879
       0.250939      -0.000000       1.478861
       0.259299      -0.067415       1.475879
       0.283807      -0.130236       1.467137
       0.322796      -0.184182       1.453231
       0.373606      -0.225576       1.435108
       0.432776      -0.251597       1.414003
       0.496272      -0.260472       1.391355
       0.559769      -0.251597       1.368706
       0.618939      -0.225576       1.347602
       0.669749      -0.184182       1.329478
       0.708737      -0.130236       1.315572
       0.733246      -0.067415       1.306830
       0.625146       0.000000       1.363522
       0.620950       0.033836       1.365019
       0.608649       0.065367       1.369406
       0.589081       0.092443       1.376386
       0.563578       0.113219       1.385482
       0.533880       0.126279       1.396075
       0.502011       0.130734       1.407442
       0.470141       0.126279       1.418810
       0.440443       0.113219       1.429402
       0.414941       0.092443       1.438499
       0.395372       0.065367       1.445478
       0.383071       0.033836       1.449866
       0.378875      -0.000000       1.451363
       0.383071      -0.033836       1.449866
       0.395372      -0.065367       1.445478
       0.414941      -0.092443       1.438499
       0.440443      -0.113219       1.429402
       0.470141      -0.126279       1.418810
       0.502011      -0.130734       1.407442
       0.533880      -0.126279       1.396075
       0.563578      -0.113219       1.385482
       0.589081      -0.092443       1.376386
       0.608649      -0.065367       1.369406
       0.620950      -0.033836       1.365019
       0.269994       0.000000      -1.475501
       0.245924       0.194114      -1.466915
       0.175354       0.375000      -1.441744
       0.063092       0.530330      -1.401702
      -0.083210       0.649519      -1.349519
      -0.253583       0.724444      -1.288750
      -0.436415       0.750000      -1.223537
      -0.619247       0.724444      -1.158324
      -0.789619       0.649519      -1.097555
      -0.935921       0.530330      -1.045371
      -1.048183       0.375000      -1.005329
      -1.118754       0.194114      -0.980158
      -1.142824      -0.000000      -0.971573
      -1.118754      -0.194114      -0.980158
      -1.048183      -0.375000      -1.005329
      -0.935921      -0.530330      -1.045371
      -0.789619      -0.649519      -1.097555
      -0.619247      -0.724444      -1.158324
      -0.436415      -0.750000      -1.223537
      -0.253583      -0.724444      -1.288750
      -0.083210      -0.649519      -1.349519
       0.063092      -0.530330      -1.401702
       0.175354      -0.375000      -1.441744
       0.245924      -0.194114      -1.466915
       0.140369       0.000000      -1.493418
       0.120024       0.164072      -1.486161
       0.060375       0.316964      -1.464885
      -0.034513       0.448254      -1.431041
      -0.158173       0.548997      -1.386933
      -0.302178       0.612327      -1.335569
      -0.456714       0.633927      -1.280448
      -0.611251       0.612327      -1.225328
      -0.755256       0.548997      -1.173964
      -0.878916       0.448254      -1.129856
      -0.973803       0.316964      -1.096012
      -1.033452       0.164073      -1.074736
      -1.053797      -0.000000      -1.067479
      -1.033452      -0.164073      -1.074736
      -0.973803      -0.316964      -1.096012
      -0.878916      -0.448254      -1.129856
      -0.755256      -0.548997      -1.173964
      -0.611251      -0.612327      -1.225328
      -0.456714      -0.633927      -1.280448
      -0.302178      -0.612327      -1.335569
      -0.158173      -0.548997      -1.386933
      -0.034513      -0.448254      -1.431040
       0.060375      -0.316964      -1.464885
       0.120024      -0.164073      -1.486161
       0.009675       0.000000      -1.499969
      -0.006790       0.132782      -1.494096
      -0.055064       0.256515      -1.476878
      -0.131855       0.362767      -1.449488
      -0.231932       0.444297      -1.413792
      -0.348473       0.495549      -1.372224
      -0.473538       0.513030      -1.327615
      -0.598602       0.495549      -1.283007
      -0.715144       0.444297      -1.241438
      -0.815220       0.362767      -1.205743
      -0.892012       0.256515      -1.178353
      -0.940285       0.132782      -1.161134
      -0.956750      -0.000000      -1.155262
      -0.940285      -0.132782      -1.161134
      -0.892012      -0.256515      -1.178353
      -0.815221      -0.362767      -1.205743
      -0.715144      -0.444297      -1.241438
      -0.598602      -0.495549      -1.283007
      -0.473538      -0.513030      -1.327615
      -0.348473      -0.495549      -1.372224
      -0.231932      -0.444297      -1.413792
      -0.131855      -0.362767      -1.449488
      -0.055064      -0.256515      -1.476878
      -0.006790      -0.132782      -1.494096
      -0.121093       0.000000      -1.495104
      -0.133553       0.100481      -1.490660
      -0.170083       0.194114      -1.477630
      -0.228194       0.274519      -1.456903
      -0.303925       0.336216      -1.429891
      -0.392116       0.375000      -1.398435
      -0.486757       0.388229      -1.364678
      -0.581398       0.375000      -1.330921
      -0.669590       0.336216      -1.299465
      -0.745321       0.274519      -1.272453
      -0.803432       0.194114      -1.251726
      -0.839962       0.100481      -1.238696
      -0.852422      -0.000000      -1.234252
      -0.839962      -0.100481      -1.238696
      -0.803432      -0.194114      -1.251726
      -0.745321      -0.274519      -1.272453
      -0.669590      -0.336216      -1.299465
      -0.581398      -0.375000      -1.330921
      -0.486757      -0.388229      -1.364678
      -0.392116      -0.375000      -1.398435
      -0.303925      -0.336216      -1.429891
      -0.228194      -0.274519      -1.456903
      -0.170083      -0.194114      -1.477630
      -0.133553      -0.100481      -1.490660
      -0.250939       0.000000      -1.478861
      -0.259299       0.067415      -1.475879
      -0.283807       0.130236      -1.467137
      -0.322796       0.184182      -1.453231
      -0.373606       0.225576      -1.435108
      -0.432775       0.251597      -1.414003
      -0.496272       0.260472      -1.391355
      -0.559769       0.251597      -1.368706
      -0.618939       0.225576      -1.347602
      -0.669749       0.184182      -1.329478
      -0.708737       0.130236      -1.315572
      -0.733246       0.067415      -1.306830
      -0.741606      -0.000000      -1.303848
      -0.733246      -0.067415      -1.306830
      -0.708737      -0.130236      -1.315572
      -0.669749      -0.184182      -1.329478
      -0.618939      -0.225576      -1.347602
      -0.559769      -0.251597      -1.368706
      -0.496272      -0.260472      -1.391355
      -0.432776      -0.251597      -1.414003
      -0.373606      -0.225576      -1.435108
      -0.322796      -0.184182      -1.453231
      -0.283808      -0.130236      -1.467137
      -0.259299      -0.067415      -1.475879
      -0.378875       0.000000      -1.451363
      -0.383071       0.033836      -1.449866
      -0.395372       0.065367      -1.445478
      -0.414941       0.092443      -1.438499
      -0.440443       0.113219      -1.429402
      -0.470141       0.126279      -1.418810
      -0.502011       0.130734      -1.407442
      -0.533880       0.126279      -1.396075
      -0.563578       0.113219      -1.385482
      -0.589081       0.092443      -1.376386
      -0.608649       0.065367      -1.369406
      -0.620950       0.033836      -1.365019
      -0.625146      -0.000000      -1.363522
      -0.620950      -0.033836      -1.365019
      -0.608649      -0.065367      -1.369406
      -0.589081      -0.092443      -1.376386
      -0.563578      -0.113219      -1.385482
      -0.533880      -0.126279      -1.396075
      -0.502011      -0.130734      -1.407442
      -0.470141      -0.126279      -1.418810
      -0.440443      -0.113219      -1.429402
      -0.414941      -0.092443      -1.438499
      -0.395372      -0.065367      -1.445478
      -0.383071      -0.033836      -1.449866
VERTICES      288     576
 1        0
 1        1
 1        2
 1        3
 1        4
 1        5
 1        6
 1        7
 1        8
 1        9
 1       10
 1       11
 1       12
 1       13
 1       14
 1       15
 1       16
 1       17
 1       18
 1       19
 1       20
 1       21
 1       22
 1       23
 1       24
 1       25
 1       26
 1       27
 1       28
 1       29
 1       30
 1       31
 1       32
 1       33
 1       34
 1       35
 1       36
 1       37
 1       38
 1       39
 1       40
 1       41
 1       42
 1       43
 1       44
 1       45
 1       46
 1       47
 1       48
 1       49
 1       50
 1       51
 1       52
 1       53
 1       54
 1       55
 1       56
 1       57
 1       58
 1       59
 1       60
 1       61
 1       62
 1       63
 1       64
 1       65
 1       66
 1       67
 1       68
 1       69
 1       70
 1       71
 1       72
 1       73
 1       74
 1       75
 1       76
 1       77
 1       78
 1       79
 1       80
 1       81
 1       82
 1       83
 1       84
 1       85
 1       86
 1       87
 1       88
 1       89
 1       90
 1       91
 1       92
 1       93
 1       94
 1       95
 1       96
 1       97
 1       98
 1       99
 1      100
 1      101
 1      102
 1      103
 1      104
 1      105
 1      106
 1      107
 1      108
 1      109
 1      110
 1      111
 1      112
 1      113
 1      114
 1      115
 1      116
 1      117
 1      118
 1      119
 1      120
 1      121
 1      122
 1      123
 1      124
 1      125
 1      126
 1      127
 1      128
 1      129
 1      130
 1      131
 1      132
 1      133
 1      134
 1      135
 1      136
 1      137
 1      138
 1      139
 1      140
 1      141
 1      142
 1      143
 1      144
 1      145
 1      146
 1      147
 1      148
 1      149
 1      150
 1      151
 1      152
 1      153
 1      154
 1      155
 1      156
 1      157
 1      158
 1      159
 1      160
 1      161
 1      162
 1      163
 1      164
 1      165
 1      166
 1      167
 1      168
 1      169
 1      170
 1      171
 1      172
 1      173
 1      174
 1      175
 1      176
 1      177
 1      178
 1      179
 1      180
 1      181
 1      182
 1      183
 1      184
 1      185
 1      186
 1      187
 1      188
 1      189
 1      190
 1      191
 1      192
 1      193
 1      194
 1      195
 1      196
 1      197
 1      198
 1      199
 1      200
 1      201
 1      202
 1      203
 1      204
 1      205
 1      206
 1      207
 1      208
 1      209
 1      210
 1      211
 1      212
 1      213
 1      214
 1      215
 1      216
 1      217
 1      218
 1      219
 1      220
 1      221
 1      222
 1      223
 1      224
 1      225
 1      226
 1      227
 1      228
 1      229
 1      230
 1      231
 1      232
 1      233
 1      234
 1      235
 1      236
 1      237
 1      238
 1      239
 1      240
 1      241
 1      242
 1      243
 1      244
 1      245
 1      246
 1      247
 1      248
 1      249
 1      250
 1      251
 1      252
 1      253
 1      254
 1      255
 1      256
 1      257
 1      258
 1      259
 1      260
 1      261
 1      262
 1      263
 1      264
 1      265
 1      266
 1      267
 1      268
 1      269
 1      270
 1      271
 1      272
 1      273
 1      274
 1      275
 1      276
 1      277
 1      278
 1      279
 1      280
 1      281
 1      282
 1      283
 1      284
 1      285
 1      286
 1      287
POINT_DATA      288
SCALARS hemisphere int 1
LOOKUP_TABLE default
 1
 1
 1
 1
 1
 1
 1
 1
 1
 1
 1
 1
 1
 1
 1
 1
 1
 1
 1
 1
 1
 1
 1
 1
 1
 1
 1
 1
 1
 1
 1
 1
 1
 1
 1
 1
 1
 1
 1
 1
 1
 1
 1
 1
 1
 1
 1
 1
 1
 1
 1
 1
 1
 1
 1
 1
 1
 1
 1
 1
 1
 1
 1
 1
 1
 1
 1
 1
 1
 1
 1
 1
 1
 1
 1
 1
 1
 1
 1
 1
 1
 1
 1
 1
 1
 1
 1
 1
 1
 1
 1
 1
 1
 1
 1
 1
 1
 1
 1
 1
 1
 1
 1
 1
 1
 1
 1
 1
 1
 1
 1
 1
 1
 1
 1
 1
 1
 1
 1
 1
 1
 1
 1
 1
 1
 1
 1
 1
 1
 1
 1
 1
 1
 1
 1
 1
 1
 1
 1
 1
 1
 1
 1
 1
-1
-1
-1
-1
-1
-1
-1
-1
-1
-1
-1
-1
-1
-1
-1
-1
-1
-1
-1
-1
-1
-1
-1
-1
-1
-1
-1
-1
-1
-1
-1
-1
-1
-1
-1
-1
-1
-1
-1
-1
-1
-1
-1
-1
-1
-1
-1
-1
-1
-1
-1
-1
-1
-1
-1
-1
-1
-1
-1
-1
-1
-1
-1
-1
-1
-1
-1
-1
-1
-1
-1
-1
-1
-1
-1
-1
-1
-1
-1
-1
-1
-1
-1
-1
-1
-1
-1
-1
-1
-1
-1
-1
-1
-1
-1
-1
-1
-1
-1
-1
-1
-1
-1
-1
-1
-1
-1
-1
-1
-1
-1
-1
-1
-1
-1
-1
-1
-1
-1
-1
-1
-1
-1
-1
-1
-1
-1
-1
-1
-1
-1
-1
-1
-1
-1
-1
-1
-1
-1
-1
-1
-1
-1
-1
