# vtk DataFile Version 3.0
SM polar seed points transformed to GSW coordinates
ASCII
DATASET POLYDATA
POINTS      288 float
       0.618419       0.000000       1.366586
       0.592988       0.194114       1.364069
       0.518427       0.375000       1.356690
       0.399817       0.530330       1.344952
       0.245242       0.649519       1.329655
       0.065236       0.724444       1.311840
      -0.127935       0.750000       1.292723
      -0.321105       0.724444       1.273606
      -0.501112       0.649519       1.255792
      -0.655687       0.530330       1.240494
      -0.774296       0.375000       1.228756
      -0.848857       0.194114       1.221377
      -0.874289      -0.000000       1.218860
      -0.848857      -0.194114       1.221377
      -0.774296      -0.375000       1.228756
      -0.655687      -0.530330       1.240494
      -0.501112      -0.649519       1.255792
      -0.321105      -0.724444       1.273606
      -0.127935      -0.750000       1.292723
       0.065236      -0.724444       1.311840
       0.245242      -0.649519       1.329655
       0.399817      -0.530330       1.344952
       0.518427      -0.375000       1.356690
       0.592988      -0.194114       1.364069
       0.496960       0.000000       1.415285
       0.475465       0.164072       1.413157
       0.412443       0.316964       1.406920
       0.312190       0.448254       1.396999
       0.181537       0.548997       1.384069
       0.029389       0.612327       1.369011
      -0.133885       0.633927       1.352853
      -0.297160       0.612327       1.336694
      -0.449308       0.548997       1.321637
      -0.579961       0.448254       1.308707
      -0.680214       0.316964       1.298785
      -0.743236       0.164073       1.292548
      -0.764731      -0.000000       1.290421
      -0.743236      -0.164073       1.292548
      -0.680214      -0.316964       1.298785
      -0.579961      -0.448254       1.308707
      -0.449308      -0.548997       1.321637
      -0.297160      -0.612327       1.336694
      -0.133885      -0.633927       1.352853
       0.029389      -0.612327       1.369011
       0.181537      -0.548997       1.384069
       0.312190      -0.448254       1.396999
       0.412443      -0.316964       1.406920
       0.475465      -0.164073       1.413157
       0.371719       0.000000       1.453212
       0.354323       0.132782       1.451490
       0.303320       0.256515       1.446443
       0.222186       0.362767       1.438414
       0.116451       0.444297       1.427949
      -0.006681       0.495549       1.415764
      -0.138817       0.513030       1.402687
      -0.270954       0.495549       1.389610
      -0.394085       0.444297       1.377424
      -0.499821       0.362767       1.366960
      -0.580955       0.256515       1.358930
      -0.631957       0.132782       1.353883
      -0.649353      -0.000000       1.352161
      -0.631957      -0.132782       1.353883
      -0.580955      -0.256515       1.358930
      -0.499821      -0.362767       1.366960
      -0.394085      -0.444297       1.377424
      -0.270954      -0.495549       1.389610
      -0.138817      -0.513030       1.402687
      -0.006681      -0.495549       1.415764
       0.116451      -0.444297       1.427949
       0.222186      -0.362767       1.438414
       0.303320      -0.256515       1.446443
       0.354323      -0.132782       1.451490
       0.243649       0.000000       1.480080
       0.230484       0.100481       1.478777
       0.191889       0.194114       1.474957
       0.130492       0.274519       1.468881
       0.050478       0.336216       1.460962
      -0.042700       0.375000       1.451741
      -0.142693       0.388229       1.441845
      -0.242685       0.375000       1.431949
      -0.335863       0.336216       1.422728
      -0.415877       0.274519       1.414809
      -0.477274       0.194114       1.408733
      -0.515870       0.100481       1.404914
      -0.529034      -0.000000       1.403611
      -0.515870      -0.100481       1.404914
      -0.477274      -0.194114       1.408733
      -0.415877      -0.274519       1.414809
      -0.335863      -0.336216       1.422728
      -0.242685      -0.375000       1.431949
      -0.142693      -0.388229       1.441845
      -0.042700      -0.375000       1.451741
       0.050478      -0.336216       1.460962
       0.130492      -0.274519       1.468881
       0.191889      -0.194114       1.474957
       0.230484      -0.100481       1.478777
       0.113724       0.000000       1.495683
       0.104892       0.067415       1.494809
       0.078997       0.130236       1.492246
       0.037804       0.184182       1.488169
      -0.015879       0.225576       1.482857
      -0.078394       0.251597       1.476670
      -0.145482       0.260472       1.470030
      -0.212569       0.251597       1.463391
      -0.275085       0.225576       1.457204
      -0.328768       0.184182       1.451891
      -0.369961       0.130236       1.447815
      -0.395856       0.067415       1.445252
      -0.404688      -0.000000       1.444378
      -0.395856      -0.067415       1.445252
      -0.369961      -0.130236       1.447815
      -0.328768      -0.184182       1.451891
      -0.275085      -0.225576       1.457204
      -0.212569      -0.251597       1.463391
      -0.145482      -0.260472       1.470030
      -0.078394      -0.251597       1.476670
      -0.015879      -0.225576       1.482857
       0.037804      -0.184182       1.488169
       0.078997      -0.130236       1.492246
       0.104892      -0.067415       1.494809
      -0.017066       0.000000       1.499903
      -0.021499       0.033836       1.499464
      -0.034496       0.065367       1.498178
      -0.055171       0.092443       1.496132
      -0.082115       0.113219       1.493465
      -0.113492       0.126279       1.490360
      -0.147164       0.130734       1.487028
      -0.180836       0.126279       1.483695
      -0.212213       0.113219       1.480590
      -0.239157       0.092443       1.477924
      -0.259832       0.065367       1.475878
      -0.272829       0.033836       1.474591
      -0.277262      -0.000000       1.474153
      -0.272829      -0.033836       1.474591
      -0.259832      -0.065367       1.475878
      -0.239157      -0.092443       1.477924
      -0.212213      -0.113219       1.480590
      -0.180836      -0.126279       1.483695
      -0.147164      -0.130734       1.487028
      -0.113492      -0.126279       1.490360
      -0.082115      -0.113219       1.493465
      -0.055171      -0.092443       1.496132
      -0.034496      -0.065367       1.498178
      -0.021499      -0.033836       1.499464
       0.874289       0.000000      -1.218860
       0.848857       0.194114      -1.221377
       0.774296       0.375000      -1.228756
       0.655687       0.530330      -1.240494
       0.501112       0.649519      -1.255792
       0.321105       0.724444      -1.273606
       0.127935       0.750000      -1.292723
      -0.065236       0.724444      -1.311840
      -0.245242       0.649519      -1.329655
      -0.399817       0.530330      -1.344952
      -0.518427       0.375000      -1.356690
      -0.592988       0.194114      -1.364069
      -0.618419      -0.000000      -1.366586
      -0.592988      -0.194114      -1.364069
      -0.518427      -0.375000      -1.356690
      -0.399817      -0.530330      -1.344952
      -0.245242      -0.649519      -1.329655
      -0.065236      -0.724444      -1.311840
       0.127935      -0.750000      -1.292723
       0.321105      -0.724444      -1.273606
       0.501112      -0.649519      -1.255792
       0.655686      -0.530330      -1.240494
       0.774296      -0.375000      -1.228756
       0.848857      -0.194114      -1.221377
       0.764731       0.000000      -1.290421
       0.743236       0.164072      -1.292548
       0.680214       0.316964      -1.298785
       0.579961       0.448254      -1.308707
       0.449308       0.548997      -1.321637
       0.297160       0.612327      -1.336694
       0.133885       0.633927      -1.352853
      -0.029389       0.612327      -1.369011
      -0.181537       0.548997      -1.384069
      -0.312190       0.448254      -1.396999
      -0.412443       0.316964      -1.406920
      -0.475465       0.164073      -1.413157
      -0.496960      -0.000000      -1.415285
      -0.475465      -0.164073      -1.413157
      -0.412443      -0.316964      -1.406920
      -0.312190      -0.448254      -1.396999
      -0.181537      -0.548997      -1.384069
      -0.029389      -0.612327      -1.369011
       0.133885      -0.633927      -1.352853
       0.297160      -0.612327      -1.336694
       0.449308      -0.548997      -1.321637
       0.579961      -0.448254      -1.308707
       0.680214      -0.316964      -1.298785
       0.743235      -0.164073      -1.292548
       0.649353       0.000000      -1.352161
       0.631957       0.132782      -1.353883
       0.580955       0.256515      -1.358930
       0.499821       0.362767      -1.366960
       0.394085       0.444297      -1.377424
       0.270954       0.495549      -1.389610
       0.138817       0.513030      -1.402687
       0.006681       0.495549      -1.415764
      -0.116451       0.444297      -1.427949
      -0.222186       0.362767      -1.438414
      -0.303320       0.256515      -1.446443
      -0.354323       0.132782      -1.451490
      -0.371719      -0.000000      -1.453212
      -0.354323      -0.132782      -1.451490
      -0.303320      -0.256515      -1.446443
      -0.222186      -0.362767      -1.438414
      -0.116451      -0.444297      -1.427949
       0.006681      -0.495549      -1.415764
       0.138817      -0.513030      -1.402687
       0.270954      -0.495549      -1.389610
       0.394085      -0.444297      -1.377424
       0.499821      -0.362767      -1.366960
       0.580954      -0.256515      -1.358930
       0.631957      -0.132782      -1.353883
       0.529034       0.000000      -1.403611
       0.515870       0.100481      -1.404914
       0.477274       0.194114      -1.408733
       0.415877       0.274519      -1.414809
       0.335863       0.336216      -1.422728
       0.242685       0.375000      -1.431949
       0.142693       0.388229      -1.441845
       0.042700       0.375000      -1.451741
      -0.050478       0.336216      -1.460962
      -0.130492       0.274519      -1.468881
      -0.191889       0.194114      -1.474957
      -0.230484       0.100481      -1.478777
      -0.243649      -0.000000      -1.480080
      -0.230484      -0.100481      -1.478777
      -0.191889      -0.194114      -1.474957
      -0.130492      -0.274519      -1.468881
      -0.050478      -0.336216      -1.460962
       0.042700      -0.375000      -1.451741
       0.142693      -0.388229      -1.441845
       0.242685      -0.375000      -1.431949
       0.335863      -0.336216      -1.422728
       0.415877      -0.274519      -1.414809
       0.477274      -0.194114      -1.408733
       0.515870      -0.100481      -1.404914
       0.404688       0.000000      -1.444378
       0.395856       0.067415      -1.445252
       0.369961       0.130236      -1.447815
       0.328768       0.184182      -1.451891
       0.275085       0.225576      -1.457204
       0.212569       0.251597      -1.463391
       0.145482       0.260472      -1.470030
       0.078394       0.251597      -1.476670
       0.015879       0.225576      -1.482857
      -0.037804       0.184182      -1.488169
      -0.078997       0.130236      -1.492246
      -0.104892       0.067415      -1.494809
      -0.113724      -0.000000      -1.495683
      -0.104892      -0.067415      -1.494809
      -0.078997      -0.130236      -1.492246
      -0.037804      -0.184182      -1.488169
       0.015879      -0.225576      -1.482857
       0.078394      -0.251597      -1.476670
       0.145482      -0.260472      -1.470030
       0.212569      -0.251597      -1.463391
       0.275085      -0.225576      -1.457204
       0.328768      -0.184182      -1.451891
       0.369961      -0.130236      -1.447815
       0.395856      -0.067415      -1.445252
       0.277262       0.000000      -1.474153
       0.272829       0.033836      -1.474591
       0.259832       0.065367      -1.475878
       0.239157       0.092443      -1.477924
       0.212213       0.113219      -1.480590
       0.180836       0.126279      -1.483695
       0.147164       0.130734      -1.487028
       0.113492       0.126279      -1.490360
       0.082115       0.113219      -1.493465
       0.055171       0.092443      -1.496132
       0.034496       0.065367      -1.498178
       0.021499       0.033836      -1.499464
       0.017066      -0.000000      -1.499903
       0.021499      -0.033836      -1.499464
       0.034496      -0.065367      -1.498178
       0.055171      -0.092443      -1.496132
       0.082115      -0.113219      -1.493465
       0.113492      -0.126279      -1.490360
       0.147164      -0.130734      -1.487028
       0.180836      -0.126279      -1.483695
       0.212213      -0.113219      -1.480590
       0.239157      -0.092443      -1.477924
       0.259832      -0.065367      -1.475878
       0.272829      -0.033836      -1.474591
VERTICES      288     576
 1        0
 1        1
 1        2
 1        3
 1        4
 1        5
 1        6
 1        7
 1        8
 1        9
 1       10
 1       11
 1       12
 1       13
 1       14
 1       15
 1       16
 1       17
 1       18
 1       19
 1       20
 1       21
 1       22
 1       23
 1       24
 1       25
 1       26
 1       27
 1       28
 1       29
 1       30
 1       31
 1       32
 1       33
 1       34
 1       35
 1       36
 1       37
 1       38
 1       39
 1       40
 1       41
 1       42
 1       43
 1       44
 1       45
 1       46
 1       47
 1       48
 1       49
 1       50
 1       51
 1       52
 1       53
 1       54
 1       55
 1       56
 1       57
 1       58
 1       59
 1       60
 1       61
 1       62
 1       63
 1       64
 1       65
 1       66
 1       67
 1       68
 1       69
 1       70
 1       71
 1       72
 1       73
 1       74
 1       75
 1       76
 1       77
 1       78
 1       79
 1       80
 1       81
 1       82
 1       83
 1       84
 1       85
 1       86
 1       87
 1       88
 1       89
 1       90
 1       91
 1       92
 1       93
 1       94
 1       95
 1       96
 1       97
 1       98
 1       99
 1      100
 1      101
 1      102
 1      103
 1      104
 1      105
 1      106
 1      107
 1      108
 1      109
 1      110
 1      111
 1      112
 1      113
 1      114
 1      115
 1      116
 1      117
 1      118
 1      119
 1      120
 1      121
 1      122
 1      123
 1      124
 1      125
 1      126
 1      127
 1      128
 1      129
 1      130
 1      131
 1      132
 1      133
 1      134
 1      135
 1      136
 1      137
 1      138
 1      139
 1      140
 1      141
 1      142
 1      143
 1      144
 1      145
 1      146
 1      147
 1      148
 1      149
 1      150
 1      151
 1      152
 1      153
 1      154
 1      155
 1      156
 1      157
 1      158
 1      159
 1      160
 1      161
 1      162
 1      163
 1      164
 1      165
 1      166
 1      167
 1      168
 1      169
 1      170
 1      171
 1      172
 1      173
 1      174
 1      175
 1      176
 1      177
 1      178
 1      179
 1      180
 1      181
 1      182
 1      183
 1      184
 1      185
 1      186
 1      187
 1      188
 1      189
 1      190
 1      191
 1      192
 1      193
 1      194
 1      195
 1      196
 1      197
 1      198
 1      199
 1      200
 1      201
 1      202
 1      203
 1      204
 1      205
 1      206
 1      207
 1      208
 1      209
 1      210
 1      211
 1      212
 1      213
 1      214
 1      215
 1      216
 1      217
 1      218
 1      219
 1      220
 1      221
 1      222
 1      223
 1      224
 1      225
 1      226
 1      227
 1      228
 1      229
 1      230
 1      231
 1      232
 1      233
 1      234
 1      235
 1      236
 1      237
 1      238
 1      239
 1      240
 1      241
 1      242
 1      243
 1      244
 1      245
 1      246
 1      247
 1      248
 1      249
 1      250
 1      251
 1      252
 1      253
 1      254
 1      255
 1      256
 1      257
 1      258
 1      259
 1      260
 1      261
 1      262
 1      263
 1      264
 1      265
 1      266
 1      267
 1      268
 1      269
 1      270
 1      271
 1      272
 1      273
 1      274
 1      275
 1      276
 1      277
 1      278
 1      279
 1      280
 1      281
 1      282
 1      283
 1      284
 1      285
 1      286
 1      287
POINT_DATA      288
SCALARS hemisphere int 1
LOOKUP_TABLE default
 1
 1
 1
 1
 1
 1
 1
 1
 1
 1
 1
 1
 1
 1
 1
 1
 1
 1
 1
 1
 1
 1
 1
 1
 1
 1
 1
 1
 1
 1
 1
 1
 1
 1
 1
 1
 1
 1
 1
 1
 1
 1
 1
 1
 1
 1
 1
 1
 1
 1
 1
 1
 1
 1
 1
 1
 1
 1
 1
 1
 1
 1
 1
 1
 1
 1
 1
 1
 1
 1
 1
 1
 1
 1
 1
 1
 1
 1
 1
 1
 1
 1
 1
 1
 1
 1
 1
 1
 1
 1
 1
 1
 1
 1
 1
 1
 1
 1
 1
 1
 1
 1
 1
 1
 1
 1
 1
 1
 1
 1
 1
 1
 1
 1
 1
 1
 1
 1
 1
 1
 1
 1
 1
 1
 1
 1
 1
 1
 1
 1
 1
 1
 1
 1
 1
 1
 1
 1
 1
 1
 1
 1
 1
 1
-1
-1
-1
-1
-1
-1
-1
-1
-1
-1
-1
-1
-1
-1
-1
-1
-1
-1
-1
-1
-1
-1
-1
-1
-1
-1
-1
-1
-1
-1
-1
-1
-1
-1
-1
-1
-1
-1
-1
-1
-1
-1
-1
-1
-1
-1
-1
-1
-1
-1
-1
-1
-1
-1
-1
-1
-1
-1
-1
-1
-1
-1
-1
-1
-1
-1
-1
-1
-1
-1
-1
-1
-1
-1
-1
-1
-1
-1
-1
-1
-1
-1
-1
-1
-1
-1
-1
-1
-1
-1
-1
-1
-1
-1
-1
-1
-1
-1
-1
-1
-1
-1
-1
-1
-1
-1
-1
-1
-1
-1
-1
-1
-1
-1
-1
-1
-1
-1
-1
-1
-1
-1
-1
-1
-1
-1
-1
-1
-1
-1
-1
-1
-1
-1
-1
-1
-1
-1
-1
-1
-1
-1
-1
-1
