# vtk DataFile Version 3.0
SM polar seed points transformed to GSW coordinates
ASCII
DATASET POLYDATA
POINTS      288 float
       0.109143       0.000000       1.496024
       0.086140       0.194114       1.484890
       0.018699       0.375000       1.452248
      -0.088584       0.530330       1.400322
      -0.228398       0.649519       1.332651
      -0.391215       0.724444       1.253846
      -0.565940       0.750000       1.169279
      -0.740664       0.724444       1.084711
      -0.903481       0.649519       1.005906
      -1.043296       0.530330       0.938235
      -1.150579       0.375000       0.886309
      -1.218020       0.194114       0.853667
      -1.241023      -0.000000       0.842533
      -1.218020      -0.194114       0.853667
      -1.150579      -0.375000       0.886309
      -1.043296      -0.530330       0.938235
      -0.903481      -0.649519       1.005906
      -0.740664      -0.724444       1.084711
      -0.565940      -0.750000       1.169279
      -0.391216      -0.724444       1.253846
      -0.228398      -0.649519       1.332651
      -0.088584      -0.530330       1.400322
       0.018699      -0.375000       1.452248
       0.086140      -0.194114       1.484890
      -0.021659       0.000000       1.499844
      -0.041102       0.164072       1.490433
      -0.098106       0.316964       1.462843
      -0.188785       0.448254       1.418953
      -0.306962       0.548997       1.361755
      -0.444581       0.612327       1.295146
      -0.592264       0.633927       1.223666
      -0.739947       0.612327       1.152186
      -0.877567       0.548997       1.085578
      -0.995743       0.448254       1.028380
      -1.086422       0.316964       0.984490
      -1.143426       0.164073       0.956900
      -1.162869      -0.000000       0.947489
      -1.143426      -0.164073       0.956900
      -1.086422      -0.316964       0.984490
      -0.995743      -0.448254       1.028380
      -0.877566      -0.548997       1.085578
      -0.739947      -0.612327       1.152186
      -0.592264      -0.633927       1.223666
      -0.444581      -0.612327       1.295146
      -0.306962      -0.548997       1.361755
      -0.188785      -0.448254       1.418953
      -0.098106      -0.316964       1.462843
      -0.041102      -0.164073       1.490433
      -0.152297       0.000000       1.492249
      -0.168032       0.132782       1.484633
      -0.214164       0.256515       1.462304
      -0.287550       0.362767       1.426785
      -0.383189       0.444297       1.380495
      -0.494562       0.495549       1.326589
      -0.614081       0.513030       1.268741
      -0.733599       0.495549       1.210894
      -0.844973       0.444297       1.156988
      -0.940611       0.362767       1.110698
      -1.013998       0.256515       1.075179
      -1.060130       0.132782       1.052850
      -1.075865      -0.000000       1.045234
      -1.060130      -0.132782       1.052850
      -1.013998      -0.256515       1.075179
      -0.940611      -0.362767       1.110698
      -0.844973      -0.444297       1.156988
      -0.733599      -0.495549       1.210894
      -0.614081      -0.513030       1.268741
      -0.494562      -0.495549       1.326589
      -0.383189      -0.444297       1.380495
      -0.287550      -0.362767       1.426785
      -0.214164      -0.256515       1.462304
      -0.168032      -0.132782       1.484633
      -0.281775       0.000000       1.473297
      -0.293682       0.100481       1.467533
      -0.328592       0.194114       1.450637
      -0.384126       0.274519       1.423758
      -0.456499       0.336216       1.388729
      -0.540780       0.375000       1.347936
      -0.631224       0.388229       1.304161
      -0.721668       0.375000       1.260385
      -0.805948       0.336216       1.219593
      -0.878322       0.274519       1.184564
      -0.933855       0.194114       1.157685
      -0.968765       0.100481       1.140788
      -0.980673      -0.000000       1.135025
      -0.968765      -0.100481       1.140788
      -0.933855      -0.194114       1.157685
      -0.878322      -0.274519       1.184564
      -0.805948      -0.336216       1.219593
      -0.721668      -0.375000       1.260385
      -0.631224      -0.388229       1.304161
      -0.540780      -0.375000       1.347936
      -0.456500      -0.336216       1.388729
      -0.384126      -0.274519       1.423758
      -0.328592      -0.194114       1.450637
      -0.293682      -0.100481       1.467533
      -0.409109       0.000000       1.443132
      -0.417098       0.067415       1.439265
      -0.440520       0.130236       1.427929
      -0.477779       0.184182       1.409895
      -0.526336       0.225576       1.386393
      -0.582882       0.251597       1.359025
      -0.643563       0.260472       1.329654
      -0.704244       0.251597       1.300284
      -0.760790       0.225576       1.272916
      -0.809347       0.184182       1.249414
      -0.846606       0.130236       1.231380
      -0.870028       0.067415       1.220043
      -0.878017      -0.000000       1.216177
      -0.870028      -0.067415       1.220043
      -0.846606      -0.130236       1.231380
      -0.809347      -0.184182       1.249414
      -0.760790      -0.225576       1.272916
      -0.704244      -0.251597       1.300284
      -0.643563      -0.260472       1.329654
      -0.582882      -0.251597       1.359025
      -0.526336      -0.225576       1.386393
      -0.477779      -0.184182       1.409895
      -0.440520      -0.130236       1.427929
      -0.417098      -0.067415       1.439265
      -0.533329       0.000000       1.401984
      -0.537339       0.033836       1.400043
      -0.549095       0.065367       1.394354
      -0.567796       0.092443       1.385302
      -0.592167       0.113219       1.373506
      -0.620548       0.126279       1.359770
      -0.651004       0.130734       1.345029
      -0.681461       0.126279       1.330287
      -0.709842       0.113219       1.316551
      -0.734213       0.092443       1.304755
      -0.752914       0.065367       1.295704
      -0.764669       0.033836       1.290014
      -0.768679      -0.000000       1.288073
      -0.764669      -0.033836       1.290014
      -0.752914      -0.065367       1.295704
      -0.734213      -0.092443       1.304755
      -0.709842      -0.113219       1.316551
      -0.681461      -0.126279       1.330287
      -0.651004      -0.130734       1.345029
      -0.620548      -0.126279       1.359770
      -0.592167      -0.113219       1.373506
      -0.567796      -0.092443       1.385302
      -0.549095      -0.065367       1.394354
      -0.537339      -0.033836       1.400043
       1.241023       0.000000      -0.842533
       1.218020       0.194114      -0.853667
       1.150579       0.375000      -0.886309
       1.043296       0.530330      -0.938235
       0.903481       0.649519      -1.005906
       0.740664       0.724444      -1.084710
       0.565940       0.750000      -1.169279
       0.391215       0.724444      -1.253846
       0.228398       0.649519      -1.332651
       0.088584       0.530330      -1.400322
      -0.018699       0.375000      -1.452248
      -0.086140       0.194114      -1.484890
      -0.109143      -0.000000      -1.496024
      -0.086140      -0.194114      -1.484890
      -0.018699      -0.375000      -1.452248
       0.088584      -0.530330      -1.400322
       0.228398      -0.649519      -1.332651
       0.391216      -0.724444      -1.253846
       0.565940      -0.750000      -1.169279
       0.740664      -0.724444      -1.084711
       0.903481      -0.649519      -1.005906
       1.043296      -0.530330      -0.938235
       1.150579      -0.375000      -0.886309
       1.218020      -0.194114      -0.853667
       1.162869       0.000000      -0.947489
       1.143426       0.164072      -0.956900
       1.086422       0.316964      -0.984490
       0.995743       0.448254      -1.028380
       0.877566       0.548997      -1.085578
       0.739947       0.612327      -1.152186
       0.592264       0.633927      -1.223666
       0.444581       0.612327      -1.295146
       0.306961       0.548997      -1.361755
       0.188785       0.448254      -1.418953
       0.098106       0.316964      -1.462843
       0.041102       0.164073      -1.490433
       0.021659      -0.000000      -1.499844
       0.041102      -0.164073      -1.490433
       0.098106      -0.316964      -1.462843
       0.188785      -0.448254      -1.418953
       0.306962      -0.548997      -1.361755
       0.444581      -0.612327      -1.295146
       0.592264      -0.633927      -1.223666
       0.739947      -0.612327      -1.152186
       0.877566      -0.548997      -1.085578
       0.995743      -0.448254      -1.028380
       1.086422      -0.316964      -0.984490
       1.143426      -0.164073      -0.956900
       1.075865       0.000000      -1.045234
       1.060130       0.132782      -1.052850
       1.013998       0.256515      -1.075179
       0.940611       0.362767      -1.110698
       0.844973       0.444297      -1.156988
       0.733599       0.495549      -1.210894
       0.614081       0.513030      -1.268741
       0.494562       0.495549      -1.326589
       0.383189       0.444297      -1.380495
       0.287550       0.362767      -1.426785
       0.214164       0.256515      -1.462304
       0.168032       0.132782      -1.484633
       0.152297      -0.000000      -1.492249
       0.168032      -0.132782      -1.484633
       0.214164      -0.256515      -1.462304
       0.287550      -0.362767      -1.426785
       0.383189      -0.444297      -1.380495
       0.494562      -0.495549      -1.326589
       0.614081      -0.513030      -1.268741
       0.733599      -0.495549      -1.210894
       0.844973      -0.444297      -1.156988
       0.940611      -0.362767      -1.110698
       1.013997      -0.256515      -1.075179
       1.060130      -0.132782      -1.052850
       0.980673       0.000000      -1.135025
       0.968765       0.100481      -1.140788
       0.933855       0.194114      -1.157685
       0.878321       0.274519      -1.184564
       0.805948       0.336216      -1.219593
       0.721668       0.375000      -1.260385
       0.631224       0.388229      -1.304161
       0.540780       0.375000      -1.347936
       0.456499       0.336216      -1.388729
       0.384126       0.274519      -1.423758
       0.328592       0.194114      -1.450637
       0.293682       0.100481      -1.467533
       0.281775      -0.000000      -1.473297
       0.293682      -0.100481      -1.467533
       0.328592      -0.194114      -1.450637
       0.384126      -0.274519      -1.423758
       0.456500      -0.336216      -1.388729
       0.540780      -0.375000      -1.347936
       0.631224      -0.388229      -1.304161
       0.721668      -0.375000      -1.260385
       0.805948      -0.336216      -1.219593
       0.878321      -0.274519      -1.184564
       0.933855      -0.194114      -1.157685
       0.968765      -0.100481      -1.140788
       0.878017       0.000000      -1.216177
       0.870028       0.067415      -1.220043
       0.846606       0.130236      -1.231380
       0.809347       0.184182      -1.249414
       0.760790       0.225576      -1.272916
       0.704244       0.251597      -1.300284
       0.643563       0.260472      -1.329654
       0.582882       0.251597      -1.359025
       0.526336       0.225576      -1.386393
       0.477779       0.184182      -1.409895
       0.440520       0.130236      -1.427929
       0.417098       0.067415      -1.439265
       0.409109      -0.000000      -1.443132
       0.417098      -0.067415      -1.439265
       0.440520      -0.130236      -1.427929
       0.477779      -0.184182      -1.409895
       0.526336      -0.225576      -1.386393
       0.582882      -0.251597      -1.359025
       0.643563      -0.260472      -1.329654
       0.704244      -0.251597      -1.300284
       0.760790      -0.225576      -1.272916
       0.809347      -0.184182      -1.249414
       0.846606      -0.130236      -1.231380
       0.870028      -0.067415      -1.220043
       0.768679       0.000000      -1.288073
       0.764669       0.033836      -1.290014
       0.752914       0.065367      -1.295704
       0.734213       0.092443      -1.304755
       0.709842       0.113219      -1.316551
       0.681461       0.126279      -1.330287
       0.651004       0.130734      -1.345029
       0.620548       0.126279      -1.359770
       0.592167       0.113219      -1.373506
       0.567796       0.092443      -1.385302
       0.549095       0.065367      -1.394354
       0.537339       0.033836      -1.400043
       0.533329      -0.000000      -1.401984
       0.537339      -0.033836      -1.400043
       0.549095      -0.065367      -1.394354
       0.567796      -0.092443      -1.385302
       0.592167      -0.113219      -1.373506
       0.620548      -0.126279      -1.359770
       0.651004      -0.130734      -1.345029
       0.681461      -0.126279      -1.330287
       0.709842      -0.113219      -1.316551
       0.734213      -0.092443      -1.304755
       0.752914      -0.065367      -1.295704
       0.764669      -0.033836      -1.290014
VERTICES      288     576
 1        0
 1        1
 1        2
 1        3
 1        4
 1        5
 1        6
 1        7
 1        8
 1        9
 1       10
 1       11
 1       12
 1       13
 1       14
 1       15
 1       16
 1       17
 1       18
 1       19
 1       20
 1       21
 1       22
 1       23
 1       24
 1       25
 1       26
 1       27
 1       28
 1       29
 1       30
 1       31
 1       32
 1       33
 1       34
 1       35
 1       36
 1       37
 1       38
 1       39
 1       40
 1       41
 1       42
 1       43
 1       44
 1       45
 1       46
 1       47
 1       48
 1       49
 1       50
 1       51
 1       52
 1       53
 1       54
 1       55
 1       56
 1       57
 1       58
 1       59
 1       60
 1       61
 1       62
 1       63
 1       64
 1       65
 1       66
 1       67
 1       68
 1       69
 1       70
 1       71
 1       72
 1       73
 1       74
 1       75
 1       76
 1       77
 1       78
 1       79
 1       80
 1       81
 1       82
 1       83
 1       84
 1       85
 1       86
 1       87
 1       88
 1       89
 1       90
 1       91
 1       92
 1       93
 1       94
 1       95
 1       96
 1       97
 1       98
 1       99
 1      100
 1      101
 1      102
 1      103
 1      104
 1      105
 1      106
 1      107
 1      108
 1      109
 1      110
 1      111
 1      112
 1      113
 1      114
 1      115
 1      116
 1      117
 1      118
 1      119
 1      120
 1      121
 1      122
 1      123
 1      124
 1      125
 1      126
 1      127
 1      128
 1      129
 1      130
 1      131
 1      132
 1      133
 1      134
 1      135
 1      136
 1      137
 1      138
 1      139
 1      140
 1      141
 1      142
 1      143
 1      144
 1      145
 1      146
 1      147
 1      148
 1      149
 1      150
 1      151
 1      152
 1      153
 1      154
 1      155
 1      156
 1      157
 1      158
 1      159
 1      160
 1      161
 1      162
 1      163
 1      164
 1      165
 1      166
 1      167
 1      168
 1      169
 1      170
 1      171
 1      172
 1      173
 1      174
 1      175
 1      176
 1      177
 1      178
 1      179
 1      180
 1      181
 1      182
 1      183
 1      184
 1      185
 1      186
 1      187
 1      188
 1      189
 1      190
 1      191
 1      192
 1      193
 1      194
 1      195
 1      196
 1      197
 1      198
 1      199
 1      200
 1      201
 1      202
 1      203
 1      204
 1      205
 1      206
 1      207
 1      208
 1      209
 1      210
 1      211
 1      212
 1      213
 1      214
 1      215
 1      216
 1      217
 1      218
 1      219
 1      220
 1      221
 1      222
 1      223
 1      224
 1      225
 1      226
 1      227
 1      228
 1      229
 1      230
 1      231
 1      232
 1      233
 1      234
 1      235
 1      236
 1      237
 1      238
 1      239
 1      240
 1      241
 1      242
 1      243
 1      244
 1      245
 1      246
 1      247
 1      248
 1      249
 1      250
 1      251
 1      252
 1      253
 1      254
 1      255
 1      256
 1      257
 1      258
 1      259
 1      260
 1      261
 1      262
 1      263
 1      264
 1      265
 1      266
 1      267
 1      268
 1      269
 1      270
 1      271
 1      272
 1      273
 1      274
 1      275
 1      276
 1      277
 1      278
 1      279
 1      280
 1      281
 1      282
 1      283
 1      284
 1      285
 1      286
 1      287
POINT_DATA      288
SCALARS hemisphere int 1
LOOKUP_TABLE default
 1
 1
 1
 1
 1
 1
 1
 1
 1
 1
 1
 1
 1
 1
 1
 1
 1
 1
 1
 1
 1
 1
 1
 1
 1
 1
 1
 1
 1
 1
 1
 1
 1
 1
 1
 1
 1
 1
 1
 1
 1
 1
 1
 1
 1
 1
 1
 1
 1
 1
 1
 1
 1
 1
 1
 1
 1
 1
 1
 1
 1
 1
 1
 1
 1
 1
 1
 1
 1
 1
 1
 1
 1
 1
 1
 1
 1
 1
 1
 1
 1
 1
 1
 1
 1
 1
 1
 1
 1
 1
 1
 1
 1
 1
 1
 1
 1
 1
 1
 1
 1
 1
 1
 1
 1
 1
 1
 1
 1
 1
 1
 1
 1
 1
 1
 1
 1
 1
 1
 1
 1
 1
 1
 1
 1
 1
 1
 1
 1
 1
 1
 1
 1
 1
 1
 1
 1
 1
 1
 1
 1
 1
 1
 1
-1
-1
-1
-1
-1
-1
-1
-1
-1
-1
-1
-1
-1
-1
-1
-1
-1
-1
-1
-1
-1
-1
-1
-1
-1
-1
-1
-1
-1
-1
-1
-1
-1
-1
-1
-1
-1
-1
-1
-1
-1
-1
-1
-1
-1
-1
-1
-1
-1
-1
-1
-1
-1
-1
-1
-1
-1
-1
-1
-1
-1
-1
-1
-1
-1
-1
-1
-1
-1
-1
-1
-1
-1
-1
-1
-1
-1
-1
-1
-1
-1
-1
-1
-1
-1
-1
-1
-1
-1
-1
-1
-1
-1
-1
-1
-1
-1
-1
-1
-1
-1
-1
-1
-1
-1
-1
-1
-1
-1
-1
-1
-1
-1
-1
-1
-1
-1
-1
-1
-1
-1
-1
-1
-1
-1
-1
-1
-1
-1
-1
-1
-1
-1
-1
-1
-1
-1
-1
-1
-1
-1
-1
-1
-1
