<?xml version="1.0"?>
<VTKFile type="StructuredGrid" version="0.1" byte_order="LittleEndian" header_type="UInt32" compressor="vtkZLibDataCompressor">
  <StructuredGrid WholeExtent="0 60 0 20 0 20">
  <Piece Extent="0 60 0 20 0 20">
    <PointData Vectors="B_total">
      <DataArray type="Float32" Name="B_total" NumberOfComponents="3" format="ascii" RangeMin="0" RangeMax="63034.43979137904">
        -9.726372 -1.3485729 3.2264934 -10.056909 -1.3855971 3.3126519
        -10.396685 -1.4241952 3.3994493 -10.745949 -1.4645492 3.4866118
        -11.104995 -1.5068692 3.5738294 -11.474158 -1.5513959 3.660752
        -11.853832 -1.5984045 3.7469869 -12.244468 -1.6482083 3.8320882
        -12.646585 -1.7011629 3.915553 -13.060781 -1.7576714 3.9968126
        -13.487728 -1.8181883 4.0752206 -13.928193 -1.8832263 4.1500454
        -14.383027 -1.9533608 4.220457 -14.853175 -2.0292377 4.2855124
        -15.339676 -2.1115806 4.344148 -15.843651 -2.2011983 4.395161
        -16.366304 -2.2989948 4.4372005 -16.908907 -2.40598 4.468756
        -17.47278 -2.5232835 4.4881496 -18.059284 -2.652167 4.49353
        -18.669783 -2.7940464 4.482874 -19.305626 -2.9505103 4.453989
        -19.968113 -3.1233475 4.404519 -20.658463 -3.314582 4.3319592
        -21.377773 -3.526509 4.233665 -22.12697 -3.7617433 4.1068687
        -22.906755 -4.0232697 3.9487047 -23.71752 -4.3145113 3.7562084
        -24.559233 -4.6393957 3.5263572 -25.431293 -5.0024347 3.2561152
        -26.332346 -5.4088044 2.9425128 -27.260046 -5.8644347 2.5827873
        -28.21078 -6.376088 2.1745872 -29.17939 -6.951428 1.7162642
        -30.158892 -7.5990553 1.2072353 -31.140203 -8.32845 0.64840496
        -32.111908 -9.149795 0.042597175 -33.06002 -10.073534 -0.6050308
        -33.96776 -11.109568 -1.2866194 -34.815254 -12.265888 -1.9912374
        -35.57927 -13.546497 -2.7044013 -36.233162 -14.948523 -3.40725
        -36.7474 -16.458527 -4.0751543 -37.09154 -18.04855 -4.6756973
        -37.238384 -19.67249 -5.1663027 -37.170895 -21.264332 -5.492483
        -36.89156 -22.739468 -5.5879188 -36.432583 -24.0006 -5.3778343
        -35.863796 -24.948277 -4.7860827 -35.29481 -25.49456 -3.7448797
        -0.097274184 -0.41772175 0.41817045 -0.08218932 -0.44257545 0.40715933
        -0.061265945 -0.46171474 0.4000907 -0.037010193 -0.47354317 0.3977728
        -0.012217999 -0.4776144 0.40022087 0.010639668 -0.47455502 0.40674186
        0.02982235 -0.4657488 0.41621244 0.044456005 -0.45291615 0.42736685
        0.054423332 -0.43776512 0.4390566 0.060166836 -0.42175484 0.45038158
        0.062407017 -0.40597296 0.46074605 -9.767602 -1.2561567 3.2203085
        -10.099869 -1.2901864 3.3048747 -10.44156 -1.325679 3.3899393
        -10.792954 -1.3628037 3.4752245 -11.154376 -1.4017553 3.5604165
        -11.526194 -1.4427577 3.645162 -11.90884 -1.4860661 3.7290633
        -12.302808 -1.531972 3.8116708 -12.708665 -1.5808066 3.8924763
        -13.127056 -1.6329451 3.970904 -13.558719 -1.6888115 4.046301
        -14.004476 -1.748885 4.1179237 -14.465252 -1.8137046 4.18493
        -14.942068 -1.8838766 4.2463613 -15.436044 -1.9600822 4.3011327
        -15.9484 -2.0430856 4.3480153 -16.480438 -2.1337447 4.385626
        -17.033548 -2.233022 4.412413 -17.609184 -2.3419995 4.426648
        -18.208847 -2.4618943 4.4264183 -18.834072 -2.5940795 4.4096212
        -19.486399 -2.7401104 4.373968 -20.167353 -2.9017522 4.316982
        -20.878405 -3.0810206 4.236005 -21.62096 -3.2802255 4.128202
        -22.396301 -3.5020292 3.990562 -23.20554 -3.7495065 3.8199134
        -24.049551 -4.026232 3.6129055 -24.928864 -4.3363657 3.3660295
        -25.843533 -4.684765 3.0756397 -26.792946 -5.0771036 2.7380047
        -27.775606 -5.520015 2.349412 -28.788858 -6.0212345 1.9063238
        -29.828596 -6.5897646 1.4056011 -30.88893 -7.2359915 0.84478235
        -31.961834 -7.971764 0.22239289 -33.036713 -8.810308 -0.4617397
        -34.09987 -9.7659 -1.2061888 -35.133743 -10.853054 -2.0075903
        -36.115913 -12.085067 -2.8601785 -37.017906 -13.471594 -3.7548873
        -37.804085 -15.015045 -4.677697 -38.43141 -16.705833 -5.606838
        -38.85109 -18.516674 -6.5087585 -39.013676 -20.397038 -7.3334074
        -38.878723 -22.269424 -8.010289 -38.42866 -24.029625 -8.447474
        -37.68493 -25.553436 -8.536121 -36.721367 -26.710674 -8.161705
        -35.66906 -27.384995 -7.220847 -34.707775 -27.494629 -5.6391945
        -0.10792017 -0.45972252 0.3621621 -0.07922745 -0.48486328 0.35079098
        -0.045983315 -0.500227 0.3471737 -0.012416363 -0.5052614 0.3512268
        0.017886162 -0.5009756 0.36165357 0.042550087 -0.48941517 0.37650228
        0.06056881 -0.47301865 0.39366174 0.07206631 -0.45409393 0.41130984
        0.07788944 -0.43451595 0.42810157 0.07923269 -0.41561937 0.44320247
        -9.801385 -1.1587392 3.2127113 -10.135128 -1.1895355 3.2958207
        -10.478464 -1.2216698 3.379307 -10.831698 -1.2552967 3.4628894
        -11.195183 -1.2905947 3.546251 -11.569319 -1.3277682 3.6290367
        -11.954573 -1.3670511 3.7108445 -12.351479 -1.4087106 3.7912226
        -12.760646 -1.45305 3.8696585 -13.182772 -1.5004139 3.945571
        -13.618641 -1.5511923 4.0183005 -14.069139 -1.6058259 4.0870967
        -14.535256 -1.6648121 4.151105 -15.018086 -1.7287115 4.209353
        -15.51883 -1.7981559 4.260738 -16.038794 -1.8738561 4.3040075
        -16.579388 -1.9566125 4.337748 -17.14211 -2.047328 4.3603725
        -17.728542 -2.1470218 4.370105 -18.340338 -2.2568471 4.364973
        -18.979198 -2.378113 4.342801 -19.646862 -2.5123122 4.3012066
        -20.34508 -2.661153 4.237594 -21.075605 -2.8266015 4.149156
        -21.840162 -3.0109339 4.0328636 -22.640413 -3.2167928 3.8854704
        -23.477934 -3.4472735 3.7034833 -24.35414 -3.7060094 3.483155
        -25.270206 -3.997287 3.220468 -26.226961 -4.326181 2.9111269
        -27.224695 -4.6987143 2.5505753 -28.262989 -5.1220493 2.1340444
        -29.34044 -5.604712 1.6566445 -30.454393 -6.1568336 1.1134899
        -31.600574 -6.7903996 0.49985263 -32.772655 -7.5194583 -0.18869665
        -33.96167 -8.360214 -0.95616806 -35.15509 -9.330841 -1.8060424
        -36.3355 -10.450817 -2.7410867 -37.478737 -11.739477 -3.7628431
        -38.551468 -13.2134 -4.870364 -39.508625 -14.882211 -6.057618
        -40.291706 -16.742638 -7.3089237 -40.829613 -18.770954 -8.592243
        -41.044273 -20.914803 -9.8509445 -40.863163 -23.086502 -10.99614
        -40.239193 -25.161236 -11.903259 -39.175423 -26.983734 -12.417112
        -37.74747 -28.38606 -12.368557 -36.113823 -29.215094 -11.601776
        -34.505257 -29.36332 -10.005327 -33.191536 -28.792204 -7.5355377
        -0.10272121 -0.5030041 0.28571033 -0.0575819 -0.52306366 0.2800579
        -0.012528419 -0.52966404 0.28642464 0.027258873 -0.52434635 0.30252743
        0.058626175 -0.51002693 0.32504606 0.080498695 -0.4900074 0.35061455
        0.09344101 -0.4673233 0.3764243 0.09893894 -0.44430304 0.40053338
        0.09882021 -0.4225011 0.42183822 -9.828505 -1.0568943 3.2038302
        -10.163487 -1.0842485 3.2856174 -10.508217 -1.112803 3.3676782
        -10.863019 -1.1426967 3.449729 -11.228271 -1.1740897 3.5314515
        -11.604405 -1.207166 3.6124883 -11.991919 -1.2421359 3.6924365
        -12.39138 -1.2792392 3.770841 -12.80344 -1.3187497 3.8471863
        -13.22884 -1.3609773 3.920888 -13.668412 -1.4062744 3.9912815
        -14.123101 -1.455039 4.0576086 -14.593952 -1.5077215 4.1190066
        -15.082129 -1.5648308 4.1744914 -15.58891 -1.6269412 4.2229433
        -16.115686 -1.6947008 4.2630897 -16.663961 -1.768843 4.2934923
        -17.235344 -1.8501968 4.3125286 -17.831541 -1.9397027 4.31838
        -18.454348 -2.0384305 4.3090215 -19.105633 -2.1476007 4.2822065
        -19.787334 -2.2686138 4.235465 -20.501436 -2.4030838 4.166089
        -21.24997 -2.5528824 4.0711274 -22.034985 -2.720193 3.947363
        -22.858557 -2.9075727 3.7913115 -23.722734 -3.118045 3.5991678
        -24.629524 -3.3551967 3.3667846 -25.580818 -3.6233065 3.089625
        -26.578287 -3.9275012 2.762723 -27.62328 -4.273954 2.3806543
        -28.716637 -4.6701164 1.9375172 -29.858486 -5.125009 1.426936
        -31.047985 -5.6495533 0.84206456 -32.282993 -6.256948 0.1755563
        -33.559563 -6.963029 -0.5805082 -34.8712 -7.7865577 -1.4347897
        -36.20762 -8.749272 -2.396894 -37.55281 -9.875463 -3.4774604
        -38.882114 -11.190694 -4.6877704 -40.15838 -12.7192 -6.0382423
        -41.327396 -14.479342 -7.5348797 -42.314083 -16.476627 -9.17271
        -43.021473 -18.694221 -10.925562 -43.336052 -21.081657 -12.732855
        -43.143013 -23.54439 -14.486123 -42.353443 -25.9383 -16.020592
        -40.94087 -28.07526 -17.119429 -38.97756 -29.744322 -17.53699
        -36.654736 -30.748201 -17.04113 -34.27115 -30.946815 -15.464787
        -32.184975 -30.292095 -12.747178 -30.741768 -28.838976 -8.9457245
        -0.07289505 -0.5359974 0.19508648 -0.013203621 -0.5452843 0.20443916
        0.038393974 -0.53975105 0.22825432 0.07777405 -0.5233278 0.26116848
        0.10395622 -0.50035954 0.29791784 0.11817837 -0.47461033 0.33437347
        0.12286377 -0.44888544 0.36782026 0.12068844 -0.4249277 0.3968708
        -9.849811 -0.951185 3.1941154 -10.185822 -0.97491527 3.2747211
        -10.531713 -0.9996964 3.3555133 -10.887831 -1.0256506 3.4362075
        -11.254575 -1.0529183 3.5164843 -11.632401 -1.0816611 3.5959847
        -12.02184 -1.1120634 3.674305 -12.423489 -1.1443363 3.750988
        -12.838034 -1.1787202 3.825517 -13.266255 -1.2154883 3.897304
        -13.709034 -1.2549508 3.9656801 -14.167358 -1.2974591 4.0298834
        -14.642332 -1.3434113 4.0890417 -15.13518 -1.3932581 4.1421623
        -15.647247 -1.447509 4.188111 -16.180006 -1.5067414 4.225599
        -16.735048 -1.5716091 4.253163 -17.314085 -1.6428547 4.2691517
        -17.91894 -1.7213237 4.271709 -18.551542 -1.807982 4.2587585
        -19.213924 -1.9039369 4.227993 -19.908213 -2.0104659 4.1768594
        -20.636618 -2.1290495 4.102546 -21.401442 -2.2614162 4.0019655
        -22.20507 -2.4095962 3.8717246 -23.049974 -2.575984 3.7081099
        -23.9387 -2.763436 3.5070171 -24.87385 -2.975369 3.263908
        -25.858055 -3.215899 2.9737344 -26.893911 -3.4900126 2.6308625
        -27.983889 -3.8037832 2.2289844 -29.13023 -4.164641 1.7610304
        -30.334799 -4.5817122 1.2190617 -31.598877 -5.066227 0.5941203
        -32.92288 -5.6319995 -0.12400937 -34.30586 -6.2959437 -0.9471678
        -35.744644 -7.0785656 -1.8893619 -37.232307 -8.004278 -2.967401
        -38.755653 -9.101307 -4.201458 -40.291183 -10.400737 -5.615015
        -41.79959 -11.934179 -7.233347 -43.21882 -13.729191 -9.079193
        -44.45717 -15.801682 -11.16404 -45.389374 -18.144718 -13.473725
        -45.86028 -20.71424 -15.948679 -45.702065 -23.414078 -18.461622
        -44.769547 -26.08569 -20.80083 -42.992176 -28.510942 -22.670795
        -40.430286 -30.43544 -23.722399 -37.31152 -31.61445 -23.616095
        -34.020973 -31.871119 -22.103964 -31.033777 -31.14535 -19.099003
        -28.808556 -29.510548 -14.697663 -8.981847 -9.106015 -2.8814297
        -0.015766144 -0.5446682 0.10661411 0.05009556 -0.54068184 0.14005661
        0.098838806 -0.52390957 0.18605232 0.12974834 -0.49971485 0.2367549
        0.14511299 -0.4726057 0.28625107 0.14854527 -0.44576025 0.3309269
        0.14380264 -0.42107248 0.3691113 -9.866153 -0.84218204 3.1842334
        -10.202999 -0.86213166 3.2638087 -10.54984 -0.8829729 3.3434992
        -10.907038 -0.9048092 3.42302 -11.275014 -0.92776036 3.5020504
        -11.654247 -0.95196354 3.5802317 -12.045289 -0.977576 3.6571586
        -12.448768 -1.0047776 3.7323732 -12.8654 -1.033773 3.8053577
        -13.296 -1.0647953 3.8755217 -13.741488 -1.0981095 3.942194
        -14.202894 -1.1340159 4.004607 -14.681371 -1.1728556 4.061884
        -15.178199 -1.2150147 4.113023 -15.694784 -1.2609313 4.1568785
        -16.232668 -1.3111024 4.192147 -16.793522 -1.3660926 4.2173448
        -17.37915 -1.426545 4.2307963 -17.991482 -1.493194 4.23061
        -18.632572 -1.5668815 4.2146673 -19.304602 -1.6485776 4.180605
        -20.009869 -1.7394053 4.125797 -20.750797 -1.8406737 4.047336
        -21.529947 -1.953918 3.9420133 -22.350018 -2.0809536 3.8062732
        -23.21386 -2.2239342 3.636192 -24.124498 -2.3854458 3.427386
        -25.085127 -2.5686066 3.1749523 -26.099108 -2.7772026 2.8733582
        -27.169954 -3.0158634 2.5163279 -28.301292 -3.2902827 2.096698
        -29.496826 -3.6075058 1.606246 -30.760244 -3.9762917 1.035466
        -32.095135 -4.407567 0.3732466 -33.50477 -4.9149776 -0.39361072
        -34.991634 -5.5155196 -1.2811031 -36.556564 -6.230197 -2.309009
        -38.196987 -7.0846004 -3.502108 -39.90385 -8.109144 -4.8913765
        -41.65664 -9.338577 -6.5145497 -43.416004 -10.810101 -8.41493
        -45.11413 -12.559166 -10.636581 -46.64413 -14.611843 -13.213601
        -47.851852 -16.972729 -16.15125 -48.53623 -19.60818 -19.397831
        -48.46709 -22.427254 -22.810905 -47.42858 -25.266127 -26.127674
        -45.289673 -27.88641 -28.957886 -42.087032 -29.998688 -30.820183
        -38.085556 -31.31627 -31.231985 -33.773884 -31.6278 -29.834415
        -29.773294 -30.860882 -26.502554 -26.68498 -29.105162 -21.384514
        -24.941072 -26.581528 -14.844866 -0.022481918 -0.5194397 -0.0011634827
        0.05995941 -0.5199213 0.042863846 0.1193924 -0.5059309 0.10379314
        0.15553665 -0.48360348 0.1704359 0.17205048 -0.4580059 0.23468876
        0.17405224 -0.4325838 0.29188228 0.16652107 -0.40932846 0.34007502
        -9.878316 -0.73046434 3.174944 -10.215821 -0.7465022 3.253653
        -10.563413 -0.7632629 3.3324208 -10.921473 -0.78083086 3.4109619
        -11.290435 -0.7993032 3.4889555 -11.6708 -0.81879187 3.566042
        -12.063137 -0.83942497 3.6418161 -12.468099 -0.86134887 3.7158198
        -12.886428 -0.8847305 3.7875333 -13.318968 -0.90976036 3.8563654
        -13.766668 -0.93665445 3.9216428 -14.230598 -0.9656587 3.9825943
        -14.711953 -0.997052 4.038338 -15.212057 -1.031151 4.087866
        -15.732369 -1.0683155 4.130023 -16.27449 -1.1089542 4.1634927
        -16.84016 -1.1535326 4.186776 -17.431263 -1.2025821 4.1981745
        -18.049824 -1.2567114 4.1957693 -18.698 -1.3166201 4.1774044
        -19.378103 -1.3831174 4.140669 -20.092588 -1.4571432 4.0828733
        -20.844067 -1.5397978 4.001031 -21.635324 -1.6323771 3.8918228
        -22.469349 -1.7364213 3.7515538 -23.349337 -1.8537657 3.576114
        -24.278744 -1.9866276 3.360875 -25.261309 -2.1376953 3.100604
        -26.301077 -2.310257 2.7893353 -27.402426 -2.5083604 2.4202087
        -28.570093 -2.7370272 1.9852729 -29.809177 -3.0025244 1.4752336
        -31.12519 -3.312724 0.8791036 -32.524017 -3.6775553 0.18370798
        -34.011845 -4.1095724 -0.62705314 -35.594776 -4.624626 -1.5732812
        -37.277996 -5.242629 -2.680571 -39.063896 -5.988289 -3.981875
        -40.94859 -6.8916397 -5.519498 -42.91604 -7.9879885 -7.346525
        -44.928993 -9.316635 -9.526276 -46.916496 -10.917394 -12.127504
        -48.759155 -12.823608 -15.212049 -50.275677 -15.050244 -18.811436
        -51.21829 -17.576302 -22.889692 -51.28917 -20.323145 -27.29543
        -50.190994 -23.134546 -31.715103 -47.71765 -25.77 -35.653027
        -43.86945 -27.926048 -38.471844 -38.945538 -29.293312 -39.51328
        -33.549873 -29.6391 -38.278072 -28.473156 -28.88242 -34.591415
        -24.483032 -27.122507 -28.664688 -22.118534 -24.60339 -21.013968
        -9.795465 -10.051591 -5.620262 0.064310074 -0.47160244 -0.053625107
        0.13560867 -0.46473598 0.022072792 0.17770195 -0.44860172 0.10484314
        0.19578552 -0.42844343 0.18404722 0.1966486 -0.40780306 0.2538352
        0.18661118 -0.38872242 0.3120005 -9.886974 -0.6166098 3.1669922
        -10.224974 -0.6286302 3.245013 -10.573134 -0.64119697 3.3230495
        -10.931849 -0.6543743 3.4008162 -11.301565 -0.66823626 3.4779916
        -11.682796 -0.6828677 3.554217 -12.076127 -0.6983662 3.629086
        -12.482232 -0.7148432 3.7021406 -12.901872 -0.7324258 3.7728608
        -13.335914 -0.7512591 3.840654 -13.785333 -0.77150804 3.9048448
        -14.251228 -0.79336023 3.9646604 -14.734826 -0.81702876 4.0192146
        -15.237487 -0.842756 4.067494 -15.760715 -0.8708175 4.108337
        -16.306156 -0.9015269 4.1404166 -16.87561 -0.93524206 4.1622214
        -17.47102 -0.97237223 4.172035 -18.094488 -1.0133872 4.1679163
        -18.74826 -1.0588282 4.1476793 -19.434757 -1.109323 4.108874
        -20.156559 -1.1656029 4.0487614 -20.916431 -1.2285261 3.9642866
        -21.717361 -1.2991098 3.8520398 -22.562553 -1.378559 3.7082226
        -23.455513 -1.4683261 3.5285587 -24.40006 -1.5701667 3.3082197
        -25.400394 -1.6862205 3.0417006 -26.461157 -1.8191172 2.7226682
        -27.587471 -1.9721134 2.3437698 -28.785044 -2.149272 1.89638
        -30.060236 -2.3557017 1.3702776 -31.420174 -2.597865 0.75318694
        -32.872852 -2.8839846 0.03011033 -34.427155 -3.2245529 -0.8176486
        -36.092613 -3.6329632 -1.8139118 -37.87863 -4.1262436 -2.9896111
        -39.792576 -4.7258244 -4.385331 -41.836067 -5.458213 -6.0541563
        -43.998356 -6.3552446 -8.064075 -46.245804 -7.4533825 -10.498373
        -48.50679 -8.791149 -13.451204 -50.652905 -10.403484 -17.014328
        -52.479733 -12.311289 -21.249454 -53.696564 -14.505291 -26.142525
        -53.939377 -16.92465 -31.540417 -52.826824 -19.435642 -37.084515
        -50.070564 -21.82134 -42.173817 -45.625008 -23.798204 -46.005825
        -39.816944 -25.069792 -47.729378 -33.36642 -25.408972 -46.687096
        -27.241291 -24.735071 -42.64596 -22.384405 -23.144604 -35.886944
        -19.44484 -20.875399 -27.09399 -18.644135 -18.224966 -17.10679
        0.058753967 -0.39414597 -0.1353569 0.14277077 -0.3991108 -0.04823494
        0.19174576 -0.3939557 0.04803753 0.2123928 -0.38358736 0.14008904
        0.21311283 -0.3714018 0.22080564 0.20152855 -0.35941005 0.2876544
        -9.892666 -0.5011843 3.1610246 -10.231008 -0.5091075 3.2385466
        -10.579564 -0.5173947 3.3160543 -10.938735 -0.5260892 3.393262
        -11.308978 -0.53524053 3.4698482 -11.690818 -0.5449062 3.5454533
        -12.084851 -0.5551517 3.6196723 -12.491763 -0.5660522 3.6920464
        -12.912332 -0.57769346 3.7620542 -13.347438 -0.5901733 3.8291042
        -13.798079 -0.6036033 3.8925188 -14.265372 -0.61811 3.951523
        -14.750569 -0.6338379 4.0052295 -15.255058 -0.65095097 4.0526195
        -15.780373 -0.66963613 4.092527 -16.328194 -0.6901063 4.1236176
        -16.900362 -0.7126049 4.144371 -17.498869 -0.7374103 4.1530566
        -18.125866 -0.7648432 4.1477184 -18.783674 -0.7952735 4.1261477
        -19.474789 -0.8291307 4.085866 -20.201885 -0.8669166 4.024097
        -20.96785 -0.90922165 3.937737 -21.775799 -0.9567467 3.82331
        -22.629133 -1.0103238 3.6769319 -23.531567 -1.0709593 3.4942124
        -24.487206 -1.1398722 3.2701683 -25.500605 -1.2185535 2.9990907
        -26.576849 -1.3088405 2.6743693 -27.721663 -1.4130177 2.2882752
        -28.941496 -1.5339458 1.831668 -30.243692 -1.6752368 1.293613
        -31.636683 -1.8414838 0.6608273 -33.130142 -2.0385609 -0.083113104
        -34.735146 -2.2740111 -0.95895827 -36.464058 -2.55753 -1.9935062
        -38.329803 -2.9015412 -3.222008 -40.34408 -3.3218393 -4.6912894
        -42.51337 -3.83817 -6.4633765 -44.831955 -4.474611 -8.618838
        -47.270226 -5.2592525 -11.258134 -49.75755 -6.222621 -14.497826
        -52.159885 -7.3937206 -18.456821 -54.255646 -8.792453 -23.225744
        -55.719475 -10.4172 -28.813694 -56.13143 -12.227743 -35.07144
        -55.03579 -14.126955 -41.605774 -52.067947 -15.950296 -47.72499
        -47.13557 -17.476465 -52.47702 -40.58436 -18.469612 -54.830627
        -33.235344 -18.746252 -53.977444 -26.215723 -18.239468 -49.62742
        -20.626951 -17.026155 -42.12646 -17.215845 -15.297846 -32.31684
        -16.21674 -13.292174 -21.223595 0.039424896 -0.29303265 -0.18642235
        0.13637161 -0.3132882 -0.094955444 0.1933136 -0.32300282 0.008878708
        0.21806908 -0.32606936 0.10905743 0.22034836 -0.32542443 0.1970706
        0.20885372 -0.32299638 0.26989388 -9.89578 -0.38473484 3.1575322
        -10.234318 -0.38850787 3.2347543 -10.583103 -0.3924585 3.3119445
        -10.94254 -0.39660832 3.3888159 -11.31309 -0.4009823 3.4650488
        -11.695286 -0.40560925 3.5402827 -12.089731 -0.4105221 3.614112
        -12.497118 -0.41575882 3.686078 -12.918233 -0.4213626 3.75566
        -13.353969 -0.42738292 3.822265 -13.805331 -0.43387604 3.8852153
        -14.273455 -0.44090617 3.9437344 -14.759601 -0.4485465 3.9969337
        -15.265176 -0.4568802 4.0437922 -15.791731 -0.46600232 4.0831404
        -16.340971 -0.47602123 4.1136394 -16.914757 -0.48706082 4.133763
        -17.515114 -0.49926347 4.1417737 -18.144226 -0.51279277 4.135704
        -18.804455 -0.52783805 4.1133327 -19.498337 -0.54461956 4.072164
        -20.228613 -0.5633949 4.009398 -20.998238 -0.5844671 3.9219007
        -21.810423 -0.6081976 3.8061566 -22.668669 -0.6350134 3.658228
        -23.576834 -0.6654339 3.4736538 -24.539192 -0.70008737 3.247356
        -25.560524 -0.73974335 2.9734986 -26.646202 -0.7853505 2.6453
        -27.802305 -0.8380885 2.2547967 -29.035772 -0.8994362 1.7925276
        -30.354574 -0.97126126 1.2471074 -31.767963 -1.05594 0.60462075
        -33.2867 -1.1565151 -0.15226287 -34.92329 -1.2768972 -1.0456061
        -36.69194 -1.4221224 -2.1041167 -38.60794 -1.5986557 -3.3658388
        -40.685844 -1.814741 -4.881668 -42.935543 -2.08073 -6.7195234
        -45.354874 -2.4093082 -8.968332 -47.917343 -2.8154013 -11.740141
        -50.553627 -3.3154323 -15.16686 -53.126865 -3.925362 -19.386366
        -55.40509 -4.656821 -24.510113 -57.040764 -5.510589 -30.564945
        -57.57664 -6.4673204 -37.40685 -56.506004 -7.477168 -44.621593
        -53.410004 -8.453081 -51.456333 -48.16104 -9.275696 -56.854576
        -41.11498 -9.816544 -59.656338 -33.16144 -9.974875 -58.943516
        -25.538757 -9.711426 -54.38345 -19.459576 -9.066951 -46.36834
        -15.738413 -8.146398 -35.85414 -14.617002 -7.079707 -23.99825
        0.0049800873 -0.18168259 -0.19405556 0.11387825 -0.21756244 -0.10803413
        0.17958069 -0.24347925 -0.0052404404 0.21021843 -0.26162434 0.09612179
        0.21618652 -0.27408206 0.1861496 0.20687103 -0.28253746 0.26108718
        -9.896551 -0.26779062 3.1568193 -10.235147 -0.26738763 3.2339466
        -10.583998 -0.26697364 3.3110356 -10.943511 -0.26654854 3.3878002
        -11.314153 -0.26611218 3.4639199 -11.696453 -0.2656645 3.5390346
        -12.091022 -0.26520556 3.6127386 -12.498551 -0.26473537 3.6845732
        -12.919833 -0.2642542 3.7540174 -13.355762 -0.26376233 3.8204782
        -13.807348 -0.26326028 3.8832777 -14.275727 -0.26274857 3.941639
        -14.762168 -0.26222825 3.9946723 -15.268082 -0.2617003 4.041356
        -15.795025 -0.26116621 4.0805197 -16.34471 -0.26062787 4.1108236
        -16.919006 -0.26008734 4.1307383 -17.519943 -0.25954762 4.138524
        -18.149721 -0.2590119 4.1322093 -18.810715 -0.25848433 4.10957
        -19.505476 -0.25796962 4.068102 -20.23676 -0.2574736 4.004999
        -21.00755 -0.25700286 3.9171166 -21.821081 -0.25656635 3.8009255
        -22.680893 -0.25617045 3.6524706 -23.590883 -0.2558258 3.467267
        -24.555393 -0.25554252 3.2402062 -25.579266 -0.25533116 2.9654095
        -26.667965 -0.2552007 2.6360378 -27.827698 -0.25515822 2.2440515
        -29.065557 -0.25520572 1.7798839 -30.389719 -0.25533584 1.2320015
        -31.809704 -0.25552583 0.58628297 -33.33664 -0.25572878 -0.17490152
        -34.98351 -0.25585926 -1.0740426 -36.76513 -0.25577307 -2.1404777
        -38.69757 -0.2552416 -3.4131694 -40.79637 -0.25391376 -4.9443617
        -43.072563 -0.25126994 -6.8039217 -45.525215 -0.24657562 -9.083567
        -48.12894 -0.23884252 -11.899208 -50.814926 -0.2268526 -15.38792
        -53.445526 -0.20924169 -19.69403 -55.785454 -0.18484828 -24.936134
        -57.479958 -0.15321888 -31.147377 -58.059418 -0.11528248 -38.185936
        -56.99998 -0.07391229 -45.63103 -53.864258 -0.033987254 -52.709694
        -48.511875 -0.0018761456 -58.330135 -41.302307 0.014320284 -61.288116
        -33.14426 0.010456949 -60.627705 -25.31812 -0.013376802 -55.999935
        -19.07284 -0.05128604 -47.812393 -15.246212 -0.09652424 -37.05971
        -14.082869 -0.14186502 -24.944695 -0.041944504 -0.07863861 -0.15369987
        0.07624054 -0.12633021 -0.08322716 0.15054703 -0.16619205 0.009157181
        0.1884079 -0.19816124 0.103899 0.20007133 -0.22307087 0.1899085
        0.19508457 -0.24209812 0.26250887 -9.8950615 -0.15086968 3.1589892
        -10.233573 -0.14629193 3.236228 -10.582327 -0.14151481 3.3134346
        -10.941731 -0.13651629 3.3903224 -11.312247 -0.13127124 3.466571
        -11.694405 -0.12575078 3.5418205 -12.08881 -0.11992191 3.615665
        -12.496153 -0.11374696 3.6876457 -12.917221 -0.10718313 3.7572417
        -13.352905 -0.10018159 3.82386 -13.804214 -0.09268708 3.8868225
        -14.272276 -0.084636554 3.945353 -14.758356 -0.0759588 3.9985619
        -15.263858 -0.066572815 4.0454288 -15.790333 -0.05638652 4.084783
        -16.339485 -0.04529529 4.115287 -16.913174 -0.033179626 4.1354127
        -17.513422 -0.019902974 4.143423 -18.142412 -0.0053083804 4.1373506
        -18.802502 0.010785313 4.114973 -19.496235 0.028588472 4.073795
        -20.226337 0.04834695 4.011016 -20.995768 0.07035059 3.9235022
        -21.807732 0.09494252 3.8077383 -22.665722 0.12253653 3.659788
        -23.573591 0.15363023 3.47519 -24.535608 0.18883115 3.2488694
        -25.556543 0.22888713 2.9749932 -26.64175 0.27472663 2.6467857
        -27.797298 0.32751393 2.25629 -29.0301 0.3887211 1.7940586
        -30.3481 0.46022677 1.2487259 -31.760513 0.54444695 0.6064035
        -33.278046 0.64450926 -0.15019318 -34.91315 0.764483 -1.0430608
        -36.67993 0.90967053 -2.1008074 -38.593575 1.0869665 -3.3613248
        -40.66849 1.3052702 -4.875287 -42.914383 1.5759027 -6.7102714
        -45.32888 1.9129171 -8.954718 -47.88529 2.333069 -11.719974
        -50.514153 2.855024 -15.136986 -53.07867 3.4972112 -19.342415
        -55.34738 4.273321 -24.446323 -56.974068 5.184839 -30.474367
        -57.50381 6.2105474 -37.282223 -56.43322 7.2951994 -44.4572
        -53.346825 8.342782 -51.250893 -48.118534 9.222332 -56.614162
        -41.10206 9.79222 -59.395653 -33.18247 9.941932 -58.68344
        -25.591286 9.635106 -54.14549 -19.533949 8.921935 -46.16854
        -15.821951 7.919522 -35.699615 -14.698544 6.770778 -23.887465
        -0.094732285 -0.0016889572 -0.0716877 0.028238297 -0.05393505 -0.024059296
        0.10952759 -0.10216284 0.050180435 0.15485382 -0.1438744 0.13145733
        0.1734581 -0.17834342 0.20792341 0.17442131 -0.20594049 0.27400398
        -9.891232 -0.034490015 3.163938 -10.229518 -0.025766056 3.2414932
        -10.578014 -0.016656518 3.3190336 -10.937121 -0.0071179364 3.3962736
        -11.307295 0.002899629 3.4728918 -11.68906 0.013453477 3.5485284
        -12.083014 0.024609152 3.622778 -12.48984 0.036441587 3.695181
        -12.910313 0.04903606 3.765217 -13.345318 0.062489703 3.8322935
        -13.795848 0.07691291 3.8957326 -14.263021 0.09243111 3.9547596
        -14.748087 0.10918666 4.008486 -15.252431 0.12734123 4.0558925
        -15.777586 0.14707871 4.0958133 -16.325232 0.16860816 4.126913
        -16.897205 0.1921681 4.147671 -17.495497 0.21803145 4.156357
        -18.122253 0.24651153 4.1510124 -18.779795 0.27796978 4.12943
        -19.470606 0.31282553 4.089129 -20.197363 0.3515687 4.0273347
        -20.962942 0.3947752 3.9409428 -21.770454 0.44312745 3.8264773
        -22.623285 0.49744275 3.6800554 -23.52514 0.5587046 3.4972887
        -24.48011 0.62810886 3.2731996 -25.492725 0.7071224 3.0020823
        -26.568054 0.7975589 2.6773405 -27.711779 0.9016816 2.2912579
        -28.930315 1.0223377 1.8347204 -30.230955 1.1631379 1.296828
        -31.622051 1.3286991 0.6643546 -33.113194 1.5249565 -0.07904321
        -34.715324 1.7595732 -0.95398754 -36.440662 2.042458 -1.9870919
        -38.301926 2.3863792 -3.2133236 -40.31053 2.8076577 -4.679093
        -42.47267 3.326828 -6.4458094 -44.782257 3.9690523 -8.593153
        -47.209343 4.76386 -11.22032 -49.683113 5.743492 -14.44219
        -52.069717 6.938774 -18.375519 -54.148624 8.370982 -23.1086
        -55.5969 10.038723 -28.648624 -55.99876 11.899936 -34.846012
        -54.90432 13.853097 -41.31064 -51.95462 15.726812 -47.358646
        -47.059956 17.291376 -52.05065 -40.56278 18.302368 -54.369976
        -33.27513 18.570986 -53.518597 -26.311539 18.0319 -49.20737
        -20.761744 16.76849 -41.773006 -17.367493 14.980835 -32.042393
        -16.365616 12.9157 -21.025814 -0.14471436 0.038294792 0.0366745
        -0.022756577 -0.01010704 0.059030533 0.062330246 -0.05944109 0.11105824
        0.11392021 -0.10507727 0.17451382 0.13951683 -0.1446836 0.23756647
        0.14712334 -0.1776061 0.29398847 -9.88483 0.08081972 3.1713605
        -10.222746 0.09363436 3.249431 -10.570818 0.10701644 3.3275168
        -10.929437 0.12103038 3.4053319 -11.299049 0.1357503 3.4825554
        -11.68017 0.15126115 3.5588279 -12.073382 0.16766031 3.6337426
        -12.479359 0.18505883 3.7068415 -12.898859 0.20358343 3.7776036
        -13.332748 0.22337817 3.8454366 -13.782003 0.244607 3.9096646
        -14.247721 0.26745588 3.969514 -14.731122 0.29213598 4.024098
        -15.233569 0.31888705 4.072403 -15.756561 0.34798133 4.113266
        -16.301744 0.3797285 4.1453605 -16.87091 0.41448128 4.1671734
        -17.466003 0.45264274 4.1769867 -18.089113 0.49467522 4.17286
        -18.742493 0.5411111 4.152606 -19.428545 0.59256697 4.113774
        -20.149847 0.6497615 4.053624 -20.909155 0.71353817 3.9691024
        -21.70944 0.78489363 3.8567984 -22.5539 0.8650166 3.7129166
        -23.446012 0.95533454 3.5331833 -24.389584 1.0575769 3.3127754
        -25.388784 1.1738553 3.0461962 -26.448214 1.3067701 2.727128
        -27.572964 1.459549 2.3482387 -28.768673 1.6362293 1.900938