# vtk DataFile Version 3.0
T01 + IGRF magnetic field in GSW coordinates
ASCII
DATASET STRUCTURED_GRID
DIMENSIONS     61    21    21
POINTS    26901 float
     -50.000000     -10.000000     -10.000000
     -49.000000     -10.000000     -10.000000
     -48.000000     -10.000000     -10.000000
     -47.000000     -10.000000     -10.000000
     -46.000000     -10.000000     -10.000000
     -45.000000     -10.000000     -10.000000
     -44.000000     -10.000000     -10.000000
     -43.000000     -10.000000     -10.000000
     -42.000000     -10.000000     -10.000000
     -41.000000     -10.000000     -10.000000
     -40.000000     -10.000000     -10.000000
     -39.000000     -10.000000     -10.000000
     -38.000000     -10.000000     -10.000000
     -37.000000     -10.000000     -10.000000
     -36.000000     -10.000000     -10.000000
     -35.000000     -10.000000     -10.000000
     -34.000000     -10.000000     -10.000000
     -33.000000     -10.000000     -10.000000
     -32.000000     -10.000000     -10.000000
     -31.000000     -10.000000     -10.000000
     -30.000000     -10.000000     -10.000000
     -29.000000     -10.000000     -10.000000
     -28.000000     -10.000000     -10.000000
     -27.000000     -10.000000     -10.000000
     -26.000000     -10.000000     -10.000000
     -25.000000     -10.000000     -10.000000
     -24.000000     -10.000000     -10.000000
     -23.000000     -10.000000     -10.000000
     -22.000000     -10.000000     -10.000000
     -21.000000     -10.000000     -10.000000
     -20.000000     -10.000000     -10.000000
     -19.000000     -10.000000     -10.000000
     -18.000000     -10.000000     -10.000000
     -17.000000     -10.000000     -10.000000
     -16.000000     -10.000000     -10.000000
     -15.000000     -10.000000     -10.000000
     -14.000000     -10.000000     -10.000000
     -13.000000     -10.000000     -10.000000
     -12.000000     -10.000000     -10.000000
     -11.000000     -10.000000     -10.000000
     -10.000000     -10.000000     -10.000000
      -9.000000     -10.000000     -10.000000
      -8.000000     -10.000000     -10.000000
      -7.000000     -10.000000     -10.000000
      -6.000000     -10.000000     -10.000000
      -5.000000     -10.000000     -10.000000
      -4.000000     -10.000000     -10.000000
      -3.000000     -10.000000     -10.000000
      -2.000000     -10.000000     -10.000000
      -1.000000     -10.000000     -10.000000
       0.000000     -10.000000     -10.000000
       1.000000     -10.000000     -10.000000
       2.000000     -10.000000     -10.000000
       3.000000     -10.000000     -10.000000
       4.000000     -10.000000     -10.000000
       5.000000     -10.000000     -10.000000
       6.000000     -10.000000     -10.000000
       7.000000     -10.000000     -10.000000
       8.000000     -10.000000     -10.000000
       9.000000     -10.000000     -10.000000
      10.000000     -10.000000     -10.000000
     -50.000000      -9.000000     -10.000000
     -49.000000      -9.000000     -10.000000
     -48.000000      -9.000000     -10.000000
     -47.000000      -9.000000     -10.000000
     -46.000000      -9.000000     -10.000000
     -45.000000      -9.000000     -10.000000
     -44.000000      -9.000000     -10.000000
     -43.000000      -9.000000     -10.000000
     -42.000000      -9.000000     -10.000000
     -41.000000      -9.000000     -10.000000
     -40.000000      -9.000000     -10.000000
     -39.000000      -9.000000     -10.000000
     -38.000000      -9.000000     -10.000000
     -37.000000      -9.000000     -10.000000
     -36.000000      -9.000000     -10.000000
     -35.000000      -9.000000     -10.000000
     -34.000000      -9.000000     -10.000000
     -33.000000      -9.000000     -10.000000
     -32.000000      -9.000000     -10.000000
     -31.000000      -9.000000     -10.000000
     -30.000000      -9.000000     -10.000000
     -29.000000      -9.000000     -10.000000
     -28.000000      -9.000000     -10.000000
     -27.000000      -9.000000     -10.000000
     -26.000000      -9.000000     -10.000000
     -25.000000      -9.000000     -10.000000
     -24.000000      -9.000000     -10.000000
     -23.000000      -9.000000     -10.000000
     -22.000000      -9.000000     -10.000000
     -21.000000      -9.000000     -10.000000
     -20.000000      -9.000000     -10.000000
     -19.000000      -9.000000     -10.000000
     -18.000000      -9.000000     -10.000000
     -17.000000      -9.000000     -10.000000
     -16.000000      -9.000000     -10.000000
     -15.000000      -9.000000     -10.000000
     -14.000000      -9.000000     -10.000000
     -13.000000      -9.000000     -10.000000
     -12.000000      -9.000000     -10.000000
     -11.000000      -9.000000     -10.000000
     -10.000000      -9.000000     -10.000000
      -9.000000      -9.000000     -10.000000
      -8.000000      -9.000000     -10.000000
      -7.000000      -9.000000     -10.000000
      -6.000000      -9.000000     -10.000000
      -5.000000      -9.000000     -10.000000
      -4.000000      -9.000000     -10.000000
      -3.000000      -9.000000     -10.000000
      -2.000000      -9.000000     -10.000000
      -1.000000      -9.000000     -10.000000
       0.000000      -9.000000     -10.000000
       1.000000      -9.000000     -10.000000
       2.000000      -9.000000     -10.000000
       3.000000      -9.000000     -10.000000
       4.000000      -9.000000     -10.000000
       5.000000      -9.000000     -10.000000
       6.000000      -9.000000     -10.000000
       7.000000      -9.000000     -10.000000
       8.000000      -9.000000     -10.000000
       9.000000      -9.000000     -10.000000
      10.000000      -9.000000     -10.000000
     -50.000000      -8.000000     -10.000000
     -49.000000      -8.000000     -10.000000
     -48.000000      -8.000000     -10.000000
     -47.000000      -8.000000     -10.000000
     -46.000000      -8.000000     -10.000000
     -45.000000      -8.000000     -10.000000
     -44.000000      -8.000000     -10.000000
     -43.000000      -8.000000     -10.000000
     -42.000000      -8.000000     -10.000000
     -41.000000      -8.000000     -10.000000
     -40.000000      -8.000000     -10.000000
     -39.000000      -8.000000     -10.000000
     -38.000000      -8.000000     -10.000000
     -37.000000      -8.000000     -10.000000
     -36.000000      -8.000000     -10.000000
     -35.000000      -8.000000     -10.000000
     -34.000000      -8.000000     -10.000000
     -33.000000      -8.000000     -10.000000
     -32.000000      -8.000000     -10.000000
     -31.000000      -8.000000     -10.000000
     -30.000000      -8.000000     -10.000000
     -29.000000      -8.000000     -10.000000
     -28.000000      -8.000000     -10.000000
     -27.000000      -8.000000     -10.000000
     -26.000000      -8.000000     -10.000000
     -25.000000      -8.000000     -10.000000
     -24.000000      -8.000000     -10.000000
     -23.000000      -8.000000     -10.000000
     -22.000000      -8.000000     -10.000000
     -21.000000      -8.000000     -10.000000
     -20.000000      -8.000000     -10.000000
     -19.000000      -8.000000     -10.000000
     -18.000000      -8.000000     -10.000000
     -17.000000      -8.000000     -10.000000
     -16.000000      -8.000000     -10.000000
     -15.000000      -8.000000     -10.000000
     -14.000000      -8.000000     -10.000000
     -13.000000      -8.000000     -10.000000
     -12.000000      -8.000000     -10.000000
     -11.000000      -8.000000     -10.000000
     -10.000000      -8.000000     -10.000000
      -9.000000      -8.000000     -10.000000
      -8.000000      -8.000000     -10.000000
      -7.000000      -8.000000     -10.000000
      -6.000000      -8.000000     -10.000000
      -5.000000      -8.000000     -10.000000
      -4.000000      -8.000000     -10.000000
      -3.000000      -8.000000     -10.000000
      -2.000000      -8.000000     -10.000000
      -1.000000      -8.000000     -10.000000
       0.000000      -8.000000     -10.000000
       1.000000      -8.000000     -10.000000
       2.000000      -8.000000     -10.000000
       3.000000      -8.000000     -10.000000
       4.000000      -8.000000     -10.000000
       5.000000      -8.000000     -10.000000
       6.000000      -8.000000     -10.000000
       7.000000      -8.000000     -10.000000
       8.000000      -8.000000     -10.000000
       9.000000      -8.000000     -10.000000
      10.000000      -8.000000     -10.000000
     -50.000000      -7.000000     -10.000000
     -49.000000      -7.000000     -10.000000
     -48.000000      -7.000000     -10.000000
     -47.000000      -7.000000     -10.000000
     -46.000000      -7.000000     -10.000000
     -45.000000      -7.000000     -10.000000
     -44.000000      -7.000000     -10.000000
     -43.000000      -7.000000     -10.000000
     -42.000000      -7.000000     -10.000000
     -41.000000      -7.000000     -10.000000
     -40.000000      -7.000000     -10.000000
     -39.000000      -7.000000     -10.000000
     -38.000000      -7.000000     -10.000000
     -37.000000      -7.000000     -10.000000
     -36.000000      -7.000000     -10.000000
     -35.000000      -7.000000     -10.000000
     -34.000000      -7.000000     -10.000000
     -33.000000      -7.000000     -10.000000
     -32.000000      -7.000000     -10.000000
     -31.000000      -7.000000     -10.000000
     -30.000000      -7.000000     -10.000000
     -29.000000      -7.000000     -10.000000
     -28.000000      -7.000000     -10.000000
     -27.000000      -7.000000     -10.000000
     -26.000000      -7.000000     -10.000000
     -25.000000      -7.000000     -10.000000
[...]
POINT_DATA    26901
VECTORS B_total float
  -1.0108700E+01  -1.4632312E+00   3.1924345E+00
  -1.0448095E+01  -1.5033100E+00   3.2798059E+00
  -1.0796554E+01  -1.5449116E+00   3.3678706E+00
  -1.1154289E+01  -1.5882069E+00   3.4563267E+00
  -1.1521556E+01  -1.6333930E+00   3.5448322E+00
  -1.1898654E+01  -1.6806973E+00   3.6330004E+00
  -1.2285934E+01  -1.7303808E+00   3.7203932E+00
  -1.2683807E+01  -1.7827410E+00   3.8065157E+00
  -1.3092750E+01  -1.8381164E+00   3.8908086E+00
  -1.3513311E+01  -1.8968910E+00   3.9726386E+00
  -1.3946121E+01  -1.9594984E+00   4.0512900E+00
  -1.4391893E+01  -2.0264270E+00   4.1259537E+00
  -1.4851428E+01  -2.0982263E+00   4.1957154E+00
  -1.5325612E+01  -2.1755114E+00   4.2595434E+00
  -1.5815425E+01  -2.2589715E+00   4.3162789E+00
  -1.6321922E+01  -2.3493767E+00   4.3646202E+00
  -1.6846239E+01  -2.4475880E+00   4.4031153E+00
  -1.7389570E+01  -2.5545664E+00   4.4301524E+00
  -1.7953152E+01  -2.6713872E+00   4.4439526E+00
  -1.8538254E+01  -2.7992537E+00   4.4425707E+00
  -1.9146137E+01  -2.9395173E+00   4.4238958E+00
  -1.9778040E+01  -3.0936980E+00   4.3856578E+00
  -2.0435135E+01  -3.2635138E+00   4.3254380E+00
  -2.1118496E+01  -3.4509130E+00   4.2406878E+00
  -2.1829052E+01  -3.6581142E+00   4.1287441E+00
  -2.2567537E+01  -3.8876543E+00   3.9868450E+00
  -2.3334423E+01  -4.1424427E+00   3.8121717E+00
  -2.4129822E+01  -4.4258261E+00   3.6018496E+00
  -2.4953367E+01  -4.7416582E+00   3.3530068E+00
  -2.5804058E+01  -5.0943789E+00   3.0628314E+00
  -2.6680058E+01  -5.4891000E+00   2.7286742E+00
  -2.7578442E+01  -5.9316869E+00   2.3482091E+00
  -2.8494925E+01  -6.4288464E+00   1.9196666E+00
  -2.9423565E+01  -6.9881849E+00   1.4421519E+00
  -3.0356478E+01  -7.6182275E+00   9.1603708E-01
  -3.1283560E+01  -8.3283415E+00   3.4341404E-01
  -3.2192261E+01  -9.1284990E+00  -2.7142924E-01
  -3.3067375E+01  -1.0028759E+01  -9.2155683E-01
  -3.3890869E+01  -1.1038353E+01  -1.5969440E+00
  -3.4641685E+01  -1.2164150E+01  -2.2840431E+00
  -3.5295685E+01  -1.3408440E+01  -2.9652238E+00
  -3.5825825E+01  -1.4765833E+01  -3.6178560E+00
  -3.6203133E+01  -1.6219555E+01  -4.2128773E+00
  -3.6399105E+01  -1.7737423E+01  -4.7127757E+00
  -3.6390327E+01  -1.9268539E+01  -5.0693626E+00
  -3.6165741E+01  -2.0741901E+01  -5.2222691E+00
  -3.5736099E+01  -2.2068420E+01  -5.0994587E+00
  -3.5143658E+01  -2.3147495E+01  -4.6210246E+00
  -3.4469074E+01  -2.3878059E+01  -3.7064402E+00
  -7.8550668E+00  -5.8729048E+00  -1.9179964E-01
  -9.1082811E-02  -4.4042873E-01   4.2063808E-01
  -7.2066784E-02  -4.6426392E-01   4.1196442E-01
  -4.8148632E-02  -4.8120308E-01   4.0768909E-01
  -2.2137642E-02  -4.8999500E-01   4.0826726E-01
   3.1108856E-03  -4.9062824E-01   4.1335726E-01
   2.5279999E-02  -4.8412704E-01   4.2199266E-01
   4.2922020E-02  -4.7218990E-01   4.3287897E-01
   5.5494785E-02  -4.5671511E-01   4.4473013E-01
   6.3202858E-02  -4.3948698E-01   4.5644933E-01
   6.6722393E-02  -4.2194557E-01   4.6726483E-01
   6.6944599E-02  -4.0511560E-01   4.7672862E-01
  -1.0150930E+01  -1.3629196E+00   3.1842675E+00
  -1.0491847E+01  -1.3996797E+00   3.2698445E+00
  -1.0841992E+01  -1.4378397E+00   3.3559561E+00
  -1.1201611E+01  -1.4775567E+00   3.4422956E+00
  -1.1570983E+01  -1.5190129E+00   3.5285168E+00
  -1.1950443E+01  -1.5624177E+00   3.6142285E+00
  -1.2340378E+01  -1.6080122E+00   3.6989877E+00
  -1.2741238E+01  -1.6560712E+00   3.7822950E+00
  -1.3153543E+01  -1.7069081E+00   3.8635855E+00
  -1.3577892E+01  -1.7608787E+00   3.9422190E+00
  -1.4014966E+01  -1.8183851E+00   4.0174723E+00
  -1.4465536E+01  -1.8798821E+00   4.0885262E+00
  -1.4930464E+01  -1.9458811E+00   4.1544557E+00
  -1.5410707E+01  -2.0169580E+00   4.2142138E+00
  -1.5907316E+01  -2.0937591E+00   4.2666235E+00
  -1.6421432E+01  -2.1770091E+00   4.3103600E+00
  -1.6954277E+01  -2.2675231E+00   4.3439441E+00
  -1.7507149E+01  -2.3662152E+00   4.3657284E+00
  -1.8081400E+01  -2.4741139E+00   4.3738909E+00
  -1.8678425E+01  -2.5923798E+00   4.3664322E+00
  -1.9299637E+01  -2.7223244E+00   4.3411713E+00
  -1.9946444E+01  -2.8654373E+00   4.2957501E+00
  -2.0620224E+01  -3.0234184E+00   4.2276402E+00
  -2.1322287E+01  -3.1982152E+00   4.1341496E+00
  -2.2053844E+01  -3.3920705E+00   4.0124316E+00
  -2.2815960E+01  -3.6075802E+00   3.8594897E+00
  -2.3609497E+01  -3.8477609E+00   3.6722040E+00
  -2.4435028E+01  -4.1161304E+00   3.4473190E+00
  -2.5292725E+01  -4.4168053E+00   3.1814785E+00
  -2.6182211E+01  -4.7546086E+00   2.8712637E+00
  -2.7102381E+01  -5.1351986E+00   2.5132604E+00
  -2.8051146E+01  -5.5652075E+00   2.1041870E+00
  -2.9025179E+01  -6.0524015E+00   1.6410662E+00
  -3.0019590E+01  -6.6058207E+00   1.1214699E+00
  -3.1027603E+01  -7.2359023E+00   5.4381347E-01
  -3.2040169E+01  -7.9545135E+00  -9.2315093E-02
  -3.3045517E+01  -8.7748127E+00  -7.8581309E-01
  -3.4028606E+01  -9.7108097E+00  -1.5337102E+00
  -3.4970387E+01  -1.0776432E+01  -2.3307645E+00
  -3.5846836E+01  -1.1983860E+01  -3.1688528E+00
  -3.6627956E+01  -1.3340900E+01  -4.0359173E+00
  -3.7276947E+01  -1.4847170E+01  -4.9140978E+00
  -3.7750404E+01  -1.6489178E+01  -5.7767520E+00
  -3.8000687E+01  -1.8234695E+01  -6.5843501E+00
  -3.7981693E+01  -2.0027451E+01  -7.2798681E+00
  -3.7659119E+01  -2.1783978E+01  -7.7852521E+00
  -3.7024635E+01  -2.3394806E+01  -8.0012169E+00
  -3.6111515E+01  -2.4732290E+01  -7.8127642E+00
  -3.5006607E+01  -2.5665455E+01  -7.1013393E+00
  -3.3852890E+01  -2.6080252E+01  -5.7619581E+00
  -1.7677727E+01  -1.4110251E+01  -1.8202848E+00
  -9.5994473E-02  -4.8959732E-01   3.6485004E-01
  -6.3063145E-02  -5.1200676E-01   3.5717297E-01
  -2.7309418E-02  -5.2343178E-01   3.5752487E-01
   6.9465637E-03  -5.2394199E-01   3.6524343E-01
   3.6357880E-02  -5.1511574E-01   3.7862325E-01
   5.8993340E-02  -4.9944019E-01   3.9546156E-01
   7.4319839E-02  -4.7957611E-01   4.1362071E-01
   8.2905769E-02  -4.5793200E-01   4.3136770E-01
   8.5921288E-02  -4.3634272E-01   4.4754893E-01
   8.4753513E-02  -4.1604280E-01   4.6154043E-01
  -1.0182494E+01  -1.2567382E+00   3.1739209E+00
  -1.0524595E+01  -1.2899565E+00   3.2578430E+00
  -1.0876075E+01  -1.3244426E+00   3.3421631E+00
  -1.1237200E+01  -1.3603395E+00   3.4265723E+00
  -1.1608282E+01  -1.3978127E+00   3.5107210E+00
  -1.1989683E+01  -1.4370528E+00   3.5942154E+00
  -1.2381824E+01  -1.4782790E+00   3.6766100E+00
  -1.2785192E+01  -1.5217423E+00   3.7574024E+00
  -1.3200350E+01  -1.5677284E+00   3.8360238E+00
  -1.3627939E+01  -1.6165622E+00   3.9118309E+00
  -1.4068690E+01  -1.6686124E+00   3.9840944E+00
  -1.4523426E+01  -1.7242951E+00   4.0519896E+00
  -1.4993070E+01  -1.7840812E+00   4.1145811E+00
  -1.5478642E+01  -1.8485010E+00   4.1708140E+00
  -1.5981266E+01  -1.9181516E+00   4.2194948E+00
  -1.6502159E+01  -1.9937062E+00   4.2592816E+00
  -1.7042639E+01  -2.0759234E+00   4.2886720E+00
  -1.7604095E+01  -2.1656592E+00   4.3059883E+00
  -1.8187998E+01  -2.2638824E+00   4.3093710E+00
  -1.8795876E+01  -2.3716917E+00   4.2967706E+00
  -1.9429291E+01  -2.4903395E+00   4.2659435E+00
  -2.0089832E+01  -2.6212580E+00   4.2144499E+00
  -2.0779091E+01  -2.7660952E+00   4.1396537E+00
  -2.1498629E+01  -2.9267578E+00   4.0387239E+00
  -2.2249964E+01  -3.1054635E+00   3.9086299E+00
  -2.3034525E+01  -3.3048043E+00   3.7461503E+00
  -2.3853607E+01  -3.5278289E+00   3.5478497E+00
  -2.4708309E+01  -3.7781377E+00   3.3100812E+00
  -2.5599428E+01  -4.0599980E+00   3.0289831E+00
  -2.6527348E+01  -4.3784876E+00   2.7004862E+00
  -2.7491856E+01  -4.7396584E+00   2.3203456E+00
  -2.8491941E+01  -5.1507378E+00   1.8842057E+00
  -2.9525536E+01  -5.6203542E+00   1.3877017E+00
  -3.0589216E+01  -6.1587772E+00   8.2659161E-01
  -3.1677837E+01  -6.7781606E+00   1.9691591E-01
  -3.2784046E+01  -7.4927082E+00  -5.0486141E-01
  -3.3897629E+01  -8.3186970E+00  -1.2816956E+00
  -3.5004566E+01  -9.2741871E+00  -2.1358235E+00
  -3.6085651E+01  -1.0378193E+01  -3.0684361E+00
  -3.7114620E+01  -1.1649006E+01  -4.0790024E+00
  -3.8055862E+01  -1.3101315E+01  -5.1637239E+00
  -3.8862186E+01  -1.4741743E+01  -6.3125801E+00
  -3.9473701E+01  -1.6562717E+01  -7.5044699E+00
  -3.9819473E+01  -1.8534828E+01  -8.7002401E+00
  -3.9824207E+01  -2.0598953E+01  -9.8345661E+00
  -3.9421791E+01  -2.2660254E+01  -1.0808831E+01
  -3.8575737E+01  -2.4587511E+01  -1.1488853E+01
  -3.7303528E+01  -2.6221352E+01  -1.1711613E+01
  -3.5697250E+01  -2.7393505E+01  -1.1303767E+01
  -3.3930664E+01  -2.7955032E+01  -1.0110069E+01
  -3.2244518E+01  -2.7806480E+01  -8.0240278E+00
  -1.7743187E+01  -1.5623462E+01  -2.7372456E+00
  -8.2669258E-02  -5.4010963E-01   2.8874969E-01
  -3.3939362E-02  -5.5507278E-01   2.8859329E-01
   1.2142181E-02  -5.5573845E-01   3.0015326E-01
   5.0777435E-02  -5.4446888E-01   3.2046890E-01
   7.9447746E-02  -5.2474403E-01   3.4588599E-01
   9.7800255E-02  -5.0020885E-01   3.7296534E-01
   1.0698032E-01  -4.7397232E-01   3.9907324E-01
   1.0891151E-01  -4.4831419E-01   4.2253202E-01
   1.0566664E-01  -4.2464924E-01   4.4253764E-01
  -1.0204993E+01  -1.1451148E+00   3.1612520E+00
  -1.0547993E+01  -1.1745944E+00   3.2436504E+00
  -1.0900503E+01  -1.2052021E+00   3.3263328E+00
  -1.1262814E+01  -1.2370657E+00   3.4089880E+00
  -1.1635262E+01  -1.2703331E+00   3.4912646E+00
  -1.2018236E+01  -1.3051748E+00   3.5727684E+00
  -1.2412188E+01  -1.3417872E+00   3.6530528E+00
  -1.2817639E+01  -1.3803951E+00   3.7316134E+00
  -1.3235188E+01  -1.4212545E+00   3.8078804E+00
  -1.3665516E+01  -1.4646577E+00   3.8812079E+00
  -1.4109401E+01  -1.5109358E+00   3.9508648E+00
  -1.4567716E+01  -1.5604644E+00   4.0160217E+00
  -1.5041434E+01  -1.6136681E+00   4.0757380E+00
  -1.5531643E+01  -1.6710266E+00   4.1289501E+00
  -1.6039528E+01  -1.7330824E+00   4.1744552E+00
  -1.6566385E+01  -1.8004484E+00   4.2108970E+00
  -1.7113611E+01  -1.8738179E+00   4.2367535E+00
  -1.7682703E+01  -1.9539770E+00   4.2503228E+00
  -1.8275234E+01  -2.0418189E+00   4.2497120E+00
  -1.8892862E+01  -2.1383641E+00   4.2328286E+00
  -1.9537308E+01  -2.2447810E+00   4.1973710E+00
  -2.0210337E+01  -2.3624165E+00   4.1408234E+00
  -2.0913755E+01  -2.4928312E+00   4.0604501E+00
  -2.1649391E+01  -2.6378448E+00   3.9532869E+00
  -2.2419075E+01  -2.7995939E+00   3.8161271E+00
  -2.3224621E+01  -2.9805958E+00   3.6455204E+00
  -2.4067791E+01  -3.1838434E+00   3.4377275E+00
  -2.4950249E+01  -3.4129081E+00   3.1887059E+00
  -2.5873497E+01  -3.6720741E+00   2.8940775E+00
  -2.6838766E+01  -3.9665027E+00   2.5490994E+00
  -2.7846884E+01  -4.3024349E+00   2.1486452E+00
  -2.8898117E+01  -4.6874409E+00   1.6872008E+00
  -2.9991947E+01  -5.1307096E+00   1.1588624E+00
  -3.1126799E+01  -5.6433930E+00   5.5734003E-01
  -3.2299667E+01  -6.2389565E+00  -1.2408064E-01
  -3.3505577E+01  -6.9335184E+00  -8.9262438E-01
  -3.4736744E+01  -7.7460685E+00  -1.7561769E+00
  -3.5981216E+01  -8.6983929E+00  -2.7234163E+00
  -3.7220837E+01  -9.8144770E+00  -3.8037696E+00
  -3.8428307E+01  -1.1118988E+01  -5.0067587E+00
  -3.9563362E+01  -1.2634362E+01  -6.3401136E+00
  -4.0568611E+01  -1.4375918E+01  -7.8057151E+00
  -4.1366306E+01  -1.6344604E+01  -9.3925266E+00
  -4.1858429E+01  -1.8517328E+01  -1.1065981E+01
  -4.1933456E+01  -2.0835920E+01  -1.2754746E+01
  -4.1483070E+01  -2.3197319E+01  -1.4337891E+01
  -4.0430504E+01  -2.5449600E+01  -1.5638013E+01
  -3.8766945E+01  -2.7399460E+01  -1.6427988E+01
  -3.6585793E+01  -2.8835522E+01  -1.6457142E+01
  -3.4098526E+01  -2.9566254E+01  -1.5495947E+01
  -3.1617493E+01  -2.9462864E+01  -1.3387676E+01
  -2.9502459E+01  -2.8491676E+01  -1.0086777E+01
  -8.1579533E+00  -8.0864019E+00  -1.4872398E+00
  -4.2785645E-02  -5.7894325E-01   1.9901752E-01
   1.8406868E-02  -5.8053780E-01   2.1581459E-01
   6.8490982E-02  -5.6728363E-01   2.4576235E-01
   1.0429287E-01  -5.4388237E-01   2.8297234E-01
   1.2584972E-01  -5.1508808E-01   3.2209587E-01
   1.3521957E-01  -4.8477983E-01   3.5925591E-01
   1.3538361E-01  -4.5565081E-01   3.9214194E-01
   1.2930584E-01  -4.2925644E-01   4.1977492E-01
  -1.0220139E+01  -1.0285181E+00   3.1467912E+00
  -1.0563803E+01  -1.0540839E+00   3.2278054E+00
  -1.0917094E+01  -1.0806315E+00   3.3090086E+00
  -1.1280321E+01  -1.1082722E+00   3.3900900E+00
  -1.1653843E+01  -1.1371356E+00   3.4706986E+00
  -1.2038074E+01  -1.1673710E+00   3.5504382E+00
  -1.2433491E+01  -1.1991501E+00   3.6288631E+00
  -1.2840648E+01  -1.2326698E+00   3.7054694E+00
  -1.3260172E+01  -1.2681552E+00   3.7796865E+00
  -1.3692787E+01  -1.3058627E+00   3.8508687E+00
  -1.4139307E+01  -1.3460834E+00   3.9182835E+00
  -1.4600651E+01  -1.3891480E+00   3.9810987E+00
  -1.5077843E+01  -1.4354310E+00   4.0383716E+00
  -1.5572023E+01  -1.4853570E+00   4.0890322E+00
  -1.6084442E+01  -1.5394069E+00   4.1318707E+00
  -1.6616465E+01  -1.5981252E+00   4.1655207E+00
  -1.7169567E+01  -1.6621304E+00   4.1884441E+00
  -1.7745333E+01  -1.7321264E+00   4.1989179E+00
  -1.8345448E+01  -1.8089168E+00   4.1950226E+00
  -1.8971693E+01  -1.8934232E+00   4.1746259E+00
  -1.9625931E+01  -1.9867078E+00   4.1353755E+00
  -2.0310106E+01  -2.0900009E+00   4.0746870E+00
  -2.1026239E+01  -2.2047379E+00   3.9897318E+00
  -2.1776413E+01  -2.3326039E+00   3.8774223E+00
  -2.2562778E+01  -2.4755924E+00   3.7343860E+00
  -2.3387533E+01  -2.6360693E+00   3.5569530E+00
  -2.4252922E+01  -2.8168731E+00   3.3410926E+00
  -2.5161196E+01  -3.0214207E+00   3.0823755E+00
  -2.6114590E+01  -3.2538536E+00   2.7759132E+00
  -2.7115248E+01  -3.5192146E+00   2.4162862E+00
  -2.8165140E+01  -3.8236790E+00   1.9974689E+00
  -2.9265951E+01  -4.1748333E+00   1.5127416E+00
  -3.0418922E+01  -4.5820231E+00   9.5457566E-01
  -3.1624638E+01  -5.0567703E+00   3.1446278E-01
  -3.2882694E+01  -5.6132436E+00  -4.1733950E-01
  -3.4191128E+01  -6.2687464E+00  -1.2522101E+00
  -3.5545410E+01  -7.0441375E+00  -2.2036729E+00
  -3.6936810E+01  -7.9640465E+00  -3.2879882E+00
  -3.8349640E+01  -9.0565853E+00  -4.5245185E+00
  -3.9757210E+01  -1.0352157E+01  -5.9353528E+00
  -4.1116264E+01  -1.1880782E+01  -7.5433092E+00
  -4.2360348E+01  -1.3667116E+01  -9.3669014E+00
  -4.3393711E+01  -1.5722506E+01  -1.1410957E+01
  -4.4088551E+01  -1.8033476E+01  -1.3651546E+01
  -4.4290493E+01  -2.0547525E+01  -1.6016006E+01
  -4.3837994E+01  -2.3158810E+01  -1.8361301E+01
  -4.2599400E+01  -2.5699446E+01  -2.0459190E+01
  -4.0525459E+01  -2.7944733E+01  -2.2000368E+01
  -3.7703323E+01  -2.9639315E+01  -2.2629055E+01
  -3.4387501E+01  -3.0545179E+01  -2.2010109E+01
  -3.0981941E+01  -3.0499681E+01  -1.9912121E+01
  -2.7964985E+01  -2.9461245E+01  -1.6273031E+01
  -2.5779072E+01  -2.7520960E+01  -1.1214784E+01
  -5.5104256E-02  -5.8644867E-01   8.9174271E-02
   2.4737358E-02  -5.9049797E-01   1.1246490E-01
   8.8595390E-02  -5.7675648E-01   1.5486431E-01
   1.3260841E-01  -5.5120945E-01   2.0725393E-01
   1.5747261E-01  -5.1971626E-01   2.6169920E-01
   1.6660500E-01  -4.8688841E-01   3.1264806E-01
   1.6432095E-01  -4.5576286E-01   3.5706139E-01
   1.5472984E-01  -4.2797852E-01   3.9384276E-01
  -1.0229623E+01  -9.0750086E-01   3.1315529E+00
  -1.0573766E+01  -9.2899907E-01   3.2113392E+00
  -1.0927635E+01  -9.5132607E-01   3.2912390E+00
  -1.1291556E+01  -9.7457665E-01   3.3709412E+00
  -1.1665908E+01  -9.9886042E-01   3.4500957E+00
  -1.2051123E+01  -1.0243044E+00   3.5283067E+00
  -1.2447705E+01  -1.0510545E+00   3.6051290E+00
  -1.2856232E+01  -1.0792781E+00   3.6800601E+00
  -1.3277361E+01  -1.1091669E+00   3.7525303E+00
  -1.3711847E+01  -1.1409389E+00   3.8218937E+00
  -1.4160541E+01  -1.1748428E+00   3.8874180E+00
  -1.4624399E+01  -1.2111610E+00   3.9482708E+00
  -1.5104492E+01  -1.2502137E+00   4.0035076E+00
  -1.5602005E+01  -1.2923650E+00   4.0520549E+00
  -1.6118248E+01  -1.3380276E+00   4.0926971E+00
  -1.6654646E+01  -1.3876702E+00   4.1240597E+00
  -1.7212748E+01  -1.4418273E+00   4.1445932E+00
  -1.7794220E+01  -1.5011082E+00   4.1525574E+00
  -1.8400845E+01  -1.5662121E+00   4.1460080E+00
  -1.9034517E+01  -1.6379429E+00   4.1227813E+00
  -1.9697237E+01  -1.7172323E+00   4.0804791E+00
  -2.0391113E+01  -1.8051647E+00   4.0164571E+00
  -2.1118366E+01  -1.9030116E+00   3.9278030E+00
  -2.1881325E+01  -2.0122743E+00   3.8113167E+00
  -2.2682436E+01  -2.1347399E+00   3.6634758E+00
  -2.3524277E+01  -2.2725430E+00   3.4804068E+00
  -2.4409555E+01  -2.4282622E+00   3.2578065E+00
  -2.5341108E+01  -2.6050284E+00   2.9908848E+00
  -2.6321898E+01  -2.8066645E+00   2.6742666E+00
  -2.7354994E+01  -3.0378718E+00   2.3018808E+00
  -2.8443533E+01  -3.3044622E+00   1.8668239E+00
  -2.9590685E+01  -3.6136580E+00   1.3611817E+00
  -3.0799564E+01  -3.9744673E+00   7.7578580E-01
  -3.2073112E+01  -4.3981428E+00   9.9860504E-02
  -3.3413811E+01  -4.8987322E+00  -6.7949504E-01
  -3.4823166E+01  -5.4936857E+00  -1.5780545E+00
  -3.6300636E+01  -6.2044611E+00  -2.6154451E+00
  -3.7841713E+01  -7.0569983E+00  -3.8162875E+00
  -3.9434586E+01  -8.0817871E+00  -5.2111888E+00
  -4.1054996E+01  -9.3131351E+00  -6.8369341E+00
  -4.2658836E+01  -1.0786963E+01  -8.7346535E+00
  -4.4172749E+01  -1.2536167E+01  -1.0944228E+01
  -4.5484253E+01  -1.4582523E+01  -1.3492569E+01
  -4.6434921E+01  -1.6924194E+01  -1.6373819E+01
  -4.6822952E+01  -1.9518871E+01  -1.9520720E+01
  -4.6423687E+01  -2.2265198E+01  -2.2771301E+01
  -4.5035824E+01  -2.4988768E+01  -2.5841530E+01
  -4.2553246E+01  -2.7443199E+01  -2.8322670E+01
  -3.9045860E+01  -2.9337267E+01  -2.9724075E+01
  -3.4813370E+01  -3.0391350E+01  -2.9569090E+01
  -3.0370111E+01  -3.0410187E+01  -2.7522093E+01
  -2.6343254E+01  -2.9343182E+01  -2.3494520E+01
  -2.3314705E+01  -2.7301025E+01  -1.7672775E+01
  -2.1675098E+01  -2.4518860E+01  -1.0448921E+01
   2.9045105E-02  -5.7622910E-01  -5.1937103E-03
   1.0885811E-01  -5.6489754E-01   5.1788330E-02
   1.6208076E-01  -5.4029560E-01   1.2215042E-01
   1.9043255E-01  -5.0918293E-01   1.9456005E-01
   1.9902420E-01  -4.7669935E-01   2.6146841E-01
   1.9386196E-01  -4.4609213E-01   3.1900668E-01
   1.8034554E-01  -4.1905212E-01   3.6603040E-01
  -1.0235004E+01  -7.8270668E-01   3.1168065E+00
  -1.0579481E+01  -8.0000502E-01   3.1955442E+00
  -1.0933767E+01  -8.1797355E-01   3.2743373E+00
  -1.1298201E+01  -8.3668917E-01   3.3528740E+00
  -1.1673175E+01  -8.5624111E-01   3.4308052E+00
  -1.2059143E+01  -8.7673271E-01   3.5077369E+00
  -1.2456627E+01  -8.9828277E-01   3.5832248E+00
  -1.2866226E+01  -9.2102748E-01   3.6567669E+00
  -1.3288623E+01  -9.4512320E-01   3.7277951E+00
  -1.3724598E+01  -9.7074783E-01   3.7956650E+00
  -1.4175033E+01  -9.9810427E-01   3.8596444E+00
  -1.4640916E+01  -1.0274234E+00   3.9189017E+00
  -1.5123357E+01  -1.0589675E+00   3.9724905E+00
  -1.5623583E+01  -1.0930347E+00   4.0193362E+00
  -1.6142948E+01  -1.1299642E+00   4.0582194E+00
  -1.6682936E+01  -1.1701418E+00   4.0877590E+00
  -1.7245152E+01  -1.2140081E+00   4.1063962E+00
  -1.7831339E+01  -1.2620676E+00   4.1123776E+00
  -1.8443361E+01  -1.3148994E+00   4.1037383E+00
  -1.9083214E+01  -1.3731738E+00   4.0782881E+00
  -1.9753019E+01  -1.4376683E+00   4.0335913E+00
  -2.0455034E+01  -1.5092925E+00   3.9669495E+00
  -2.1191652E+01  -1.5891176E+00   3.8753808E+00
  -2.1965425E+01  -1.6784137E+00   3.7555871E+00
  -2.2779074E+01  -1.7787007E+00   3.6039121E+00
  -2.3635515E+01  -1.8918023E+00   3.4163060E+00
  -2.4537884E+01  -2.0199361E+00   3.1882234E+00
  -2.5489557E+01  -2.1658092E+00   2.9145489E+00
  -2.6494179E+01  -2.3327510E+00   2.5894694E+00
  -2.7555698E+01  -2.5248861E+00   2.2063181E+00
  -2.8678375E+01  -2.7473550E+00   1.7573818E+00
  -2.9866814E+01  -3.0066037E+00   1.2336273E+00
  -3.1125988E+01  -3.3107486E+00   6.2433141E-01