<?xml version="1.0"?>
<VTKFile type="StructuredGrid" version="0.1" byte_order="LittleEndian" header_type="UInt32" compressor="vtkZLibDataCompressor">
  <StructuredGrid WholeExtent="0 60 0 20 0 20">
  <Piece Extent="0 60 0 20 0 20">
    <PointData Vectors="B_total">
      <DataArray type="Float32" Name="B_total" NumberOfComponents="3" format="ascii" RangeMin="0" RangeMax="56815.1828143204">
        -9.077269 -1.0906321 3.279268 -9.393137 -1.1211126 3.3633423
        -9.718558 -1.1532998 3.448003 -10.053843 -1.187401 3.5330296
        -10.399346 -1.2236518 3.618175 -10.755471 -1.2623203 3.7031646
        -11.122675 -1.3037106 3.7876892 -11.501484 -1.3481666 3.8714023
        -11.892492 -1.396078 3.9539123 -12.296378 -1.4478841 4.0347733
        -12.713902 -1.5040803 4.113479 -13.14592 -1.5652242 4.1894493
        -13.593383 -1.6319427 4.2620187 -14.057343 -1.7049398 4.3304234
        -14.538955 -1.7850041 4.393787 -15.039465 -1.873019 4.4511037
        -15.560214 -1.9699724 4.5012264 -16.10262 -2.0769677 4.542848
        -16.668161 -2.195237 4.574496 -17.258368 -2.3261552 4.5945144
        -17.874784 -2.4712555 4.601066 -18.518957 -2.632252 4.5921254
        -19.192392 -2.8110595 4.5654836 -19.896536 -3.0098245 4.5187535
        -20.632738 -3.2309582 4.449377 -21.402222 -3.4771814 4.3546305
        -22.206018 -3.7515635 4.231633 -23.044931 -4.0575943 4.0773435
        -23.919434 -4.399238 3.8885646 -24.82954 -4.78101 3.661961
        -25.774645 -5.2080507 3.3940992 -26.753315 -5.686203 3.081535
        -27.763031 -6.2220864 2.7209654 -28.799944 -6.823169 2.3094602
        -29.85861 -7.4978156 1.8447615 -30.931784 -8.255289 1.3256272
        -32.010216 -9.105675 0.75216657 -33.082455 -10.059629 0.12611783
        -34.134575 -11.127842 -0.54895663 -35.149742 -12.320054 -1.2675331
        -36.107563 -13.64339 -2.0219023 -36.983448 -15.099901 -2.80158
        -37.748238 -16.683216 -3.5920432 -38.369003 -18.37452 -4.3726053
        -38.812 -20.138603 -5.1136146 -39.048595 -21.921051 -5.7737417
        -39.064255 -23.648201 -6.2987447 -38.86937 -25.231358 -6.6231785
        -38.509052 -26.57602 -6.676093 -38.068256 -27.595278 -6.390361
        -34.548306 -25.910507 -5.2036724 -0.0892185 -0.3863516 0.41385174
        -0.077377796 -0.4075966 0.4029088 -0.060182333 -0.4241314 0.395617
        -0.039882183 -0.4346676 0.39270973 -0.01889515 -0.43892765 0.39417887
        0.000685215 -0.43746185 0.3994243 0.017415047 -0.4314041 0.40746498
        0.03055048 -0.42210484 0.41721916 0.039969444 -0.41089344 0.42769587
        0.04595852 -0.39887 0.438116 -9.127748 -1.0197343 3.2873394
        -9.44613 -1.0479792 3.3704276 -9.774298 -1.0778347 3.4539838
        -10.112592 -1.1094936 3.537782 -10.4614 -1.1431758 3.6215708
        -10.821158 -1.1791312 3.7050705 -11.19237 -1.2176429 3.7879665
        -11.575608 -1.2590319 3.8699062 -11.971517 -1.3036618 3.95049
        -12.380832 -1.3519431 4.0292645 -12.804383 -1.4043394 4.10571
        -13.243097 -1.4613733 4.1792336 -13.69801 -1.5236338 4.2491503
        -14.170267 -1.5917836 4.3146744 -14.661122 -1.6665673 4.374897
        -15.171939 -1.7488219 4.428777 -15.704186 -1.8394862 4.4751196
        -16.259424 -1.9396136 4.51256 -16.839293 -2.0503855 4.539552
        -17.4455 -2.1731265 4.554356 -18.079782 -2.3093245 4.555028
        -18.743917 -2.460651 4.539418 -19.439661 -2.6289885 4.505166
        -20.168749 -2.8164651 4.449704 -20.932863 -3.0254927 4.370258
        -21.733604 -3.2588205 4.2638397 -22.572447 -3.519584 4.127249
        -23.450703 -3.811391 3.95705 -24.369425 -4.138398 3.7495623
        -25.329294 -4.505405 3.5008512 -26.330463 -4.917969 3.2067437
        -27.372332 -5.3825245 2.8628888 -28.453302 -5.906515 2.464873
        -29.570515 -6.4985437 2.0084083 -30.719555 -7.168515 1.4895811
        -31.894197 -7.927753 0.9051142 -33.086056 -8.789043 0.2526014
        -34.28418 -9.766508 -0.46930933 -35.474403 -10.875148 -1.2608321
        -36.638264 -12.129813 -2.1209033 -37.75158 -13.543339 -3.04676
        -38.782673 -15.12351 -4.0328116 -39.691044 -16.868723 -5.0682697
        -40.42748 -18.762415 -6.133309 -40.937363 -20.767075 -7.193959
        -41.16863 -22.819298 -8.197021 -41.08481 -24.82815 -9.067115
        -40.681686 -26.679436 -9.708531 -40.003235 -28.247417 -10.013734
        -39.15104 -29.41352 -9.878481 -38.281258 -30.088036 -9.22016
        -37.52316 -30.177418 -7.979601 -0.099377155 -0.41443062 0.36239862
        -0.07579756 -0.43601036 0.35183144 -0.04822302 -0.44963646 0.3482194
        -0.020223618 -0.45500755 0.35136223 0.005253315 -0.45303917 0.3600874
        0.026320934 -0.44536972 0.3727188 0.04218626 -0.4338789 0.38750935
        0.05292034 -0.42030525 0.40295625 0.05914545 -0.40606117 0.41793847
        -9.176654 -0.9458679 3.2963095 -9.497439 -0.97160035 3.3785305
        -9.828226 -0.99882245 3.4611094 -10.169379 -1.027711 3.543816
        -10.521319 -1.0584677 3.6263945 -10.884517 -1.0913211 3.708559
        -11.259513 -1.126531 3.7899902 -11.64692 -1.1643921 3.870329
        -12.047437 -1.2052375 3.9491677 -12.461852 -1.249445 4.0260434
        -12.891054 -1.2974409 4.100426 -13.336042 -1.3497072 4.1717067
        -13.797931 -1.4067878 4.2391815 -14.277948 -1.4692959 4.30204
        -14.777452 -1.537923 4.359346 -15.297913 -1.6134478 4.4100184
        -15.840924 -1.6967472 4.4528146 -16.408184 -1.7888088 4.486314
        -17.00149 -1.8907447 4.5088983 -17.622719 -2.0038078 4.51874
        -18.273819 -2.1294127 4.5137925 -18.95678 -2.2691586 4.491778
        -19.673626 -2.424859 4.450186 -20.42639 -2.5985787 4.3862658
        -21.2171 -2.7926793 4.297021 -22.047762 -3.0098681 4.179198
        -22.920332 -3.2532785 4.0292616 -23.836683 -3.526546 3.8433666
        -24.798527 -3.8339086 3.6173213 -25.807316 -4.180329 3.3465514
        -26.864098 -4.571635 3.0260832 -27.96931 -5.014687 2.6505651
        -29.122551 -5.517574 2.214332 -30.322311 -6.08984 1.7115271
        -31.565697 -6.7427416 1.1362548 -32.848106 -7.489501 0.4827156
        -34.162807 -8.345518 -0.25471652 -35.50028 -9.328427 -1.0815299
        -36.847095 -10.457797 -2.003177 -38.184147 -11.754208 -3.0250418
        -39.484074 -13.237288 -4.1518955 -40.70803 -14.92224 -5.3861427
        -41.802734 -16.81451 -6.724107 -42.699257 -18.902493 -8.149806
        -43.316208 -21.149014 -9.62652 -43.569675 -23.483332 -11.087824
        -43.39142 -25.796947 -12.431505 -42.753696 -27.94694 -13.520644
        -41.694767 -29.770237 -14.195785 -40.335564 -31.108948 -14.29873
        -38.877476 -31.841492 -13.702955 -37.576996 -31.910067 -12.341043
        -28.396084 -24.311241 -7.826574 -0.09619522 -0.4410076 0.29642773
        -0.059075356 -0.4589138 0.29170513 -0.022033691 -0.46619797 0.29718208
        0.01081562 -0.46421528 0.31078386 0.037101746 -0.45527077 0.32972288
        0.056049347 -0.44187546 0.35129523 0.0680809 -0.42625618 0.37327194
        0.07428837 -0.41011333 0.39411795 -9.222928 -0.8694236 3.3060322
        -9.545956 -0.8923992 3.3875122 -9.87918 -0.91672176 3.4692512
        -10.222991 -0.9425503 3.551014 -10.577836 -0.97006553 3.63254
        -10.944216 -0.999473 3.7135394 -11.322707 -1.0310061 3.7936869
        -11.713964 -1.0649296 3.8726168 -12.118725 -1.1015437 3.9499145
        -12.53783 -1.1411881 4.0251074 -12.972226 -1.1842477 4.0976534
        -13.422976 -1.2311578 4.1669297 -13.891265 -1.2824105 4.232214
        -14.378405 -1.338562 4.292673 -14.885841 -1.4002408 4.347341
        -15.415152 -1.4681566 4.3950996 -15.968042 -1.543111 4.4346614
        -16.546347 -1.62601 4.4645495 -17.152006 -1.7178771 4.4830766
        -17.787075 -1.8198717 4.4883323 -18.453684 -1.9333076 4.4781685
        -19.154055 -2.0596788 4.4501843 -19.890461 -2.2006903 4.4017224
        -20.66524 -2.358295 4.3298545 -21.480774 -2.5347447 4.231363
        -22.339483 -2.73264 4.1027293 -23.243832 -2.9550185 3.9400854
        -24.196278 -3.2054384 3.7391725 -25.199251 -3.4880924 3.4952745
        -26.255053 -3.8079472 3.203157 -27.365746 -4.1709127 2.85701
        -28.532969 -4.584047 2.4504135 -29.757753 -5.055812 1.9763448
        -31.040289 -5.5963798 1.4271979 -32.379665 -6.218001 0.7948095
        -33.773552 -6.935406 0.070402384 -35.217712 -7.7662163 -0.7555802
        -36.705086 -8.73122 -1.6938353 -38.22426 -9.854351 -2.7566266
        -39.756817 -11.161978 -3.9580448 -41.273415 -12.681044 -5.313461
        -42.72866 -14.435375 -6.837214 -44.055767 -16.439535 -8.537316
        -45.163208 -18.68983 -10.406221 -45.936718 -21.152899 -12.407721
        -46.250984 -23.754025 -14.462111 -45.993793 -26.36887 -16.43446
        -45.101837 -28.82483 -18.133307 -43.600357 -30.917332 -19.326977
        -41.63156 -32.442574 -19.779776 -39.455376 -33.240833 -19.301435
        -37.413227 -33.235794 -17.7928 -35.86285 -32.45404 -15.268787
        -7.0631065 -6.500577 -2.1658564 -0.07367706 -0.45759392 0.223382
        -0.02523899 -0.46811485 0.2317276 0.016697884 -0.46719933 0.25165176
        0.049176216 -0.4579363 0.27875137 0.07157898 -0.44351768 0.30895138
        0.08488464 -0.42669582 0.33908367 0.09083843 -0.4094653 0.3670981
        -9.265495 -0.79073834 3.3161266 -9.59056 -0.81074566 3.396992
        -9.925995 -0.8319384 3.478029 -10.272213 -0.8544557 3.558998
        -10.629682 -0.87845606 3.6396353 -10.998934 -0.9041195 3.7196457
        -11.380574 -0.93165046 3.798699 -11.775291 -0.96128124 3.876423
        -12.183867 -0.9932752 3.9523966 -12.607184 -1.027931 4.0261383
        -13.046241 -1.0655869 4.0970955 -13.502156 -1.1066266 4.164631
        -13.97618 -1.1514843 4.228007 -14.469701 -1.2006513 4.2863665
        -14.984244 -1.2546844 4.3387165 -15.521483 -1.3142139 4.3839073
        -16.083233 -1.3799535 4.4206066 -16.671446 -1.4527118 4.4472857
        -17.288202 -1.5334065 4.462194 -17.93571 -1.6230795 4.4633427
        -18.616291 -1.7229182 4.448488 -19.332369 -1.8342782 4.4151173
        -20.08647 -1.9587147 4.360432 -20.88122 -2.09802 4.2813344
        -21.71935 -2.254275 4.1744 -22.603697 -2.4298975 4.0358543
        -23.537216 -2.627736 3.8615074 -24.522984 -2.8511539 3.6466966
        -25.564152 -3.1041522 3.386191 -26.66392 -3.3915193 3.0740995
        -27.82543 -3.7190175 2.7037673 -29.051645 -4.093619 2.2676837
        -30.345205 -4.5238028 1.7574054 -31.708267 -5.019931 1.163464
        -33.142303 -5.594709 0.47521514 -34.647835 -6.26373 -0.31945276
        -36.22389 -7.046073 -1.2346393 -37.866974 -7.964841 -2.2872121
        -39.56904 -9.047443 -3.4977634 -41.31398 -10.325251 -4.8913574
        -43.072197 -11.832027 -6.497231 -44.793137 -13.600349 -8.3461075
        -46.396893 -15.654987 -10.463285 -47.76748 -18.002533 -12.855816
        -48.752514 -20.617336 -15.493357 -49.175507 -23.42543 -18.284824
        -48.866524 -26.291504 -21.057718 -47.711906 -29.016552 -23.551502
        -45.71341 -31.354904 -25.437605 -43.035007 -33.054688 -26.37277
        -40.009575 -33.914715 -26.076424 -37.088985 -33.83847 -24.40511
        -34.747963 -32.861305 -21.39036 -33.378586 -31.137602 -17.221176
        -0.09378338 -0.43976974 0.14628983 -0.03138256 -0.45550156 0.15741539
        0.021496773 -0.45754433 0.18473244 0.061243057 -0.4497261 0.22157383
        0.08755398 -0.4359579 0.26200533 0.10218716 -0.41946125 0.3016801
        0.10775375 -0.40252018 0.33793998 -9.303343 -0.71011436 3.3260703
        -9.630198 -0.7269744 3.4064424 -9.967573 -0.7448424 3.4869108
        -10.3159 -0.7638363 3.5672338 -10.675668 -0.78409046 3.647143
        -11.047431 -0.80575746 3.7263389 -11.431823 -0.829011 3.8044875
        -11.82956 -0.8540482 3.881211 -12.241461 -0.8810927 3.9560823
        -12.668447 -0.9103987 4.0286117 -13.111559 -0.9422541 4.098237
        -13.571969 -0.97698593 4.164309 -14.050982 -1.0149646 4.2260737
        -14.550051 -1.0566107 4.2826567 -15.070777 -1.102401 4.3330393
        -15.614915 -1.1528763 4.3760405 -16.184372 -1.2086506 4.410291
        -16.781212 -1.2704217 4.434216 -17.407639 -1.3389833 4.4460073
        -18.066006 -1.4152402 4.443606 -18.758793 -1.500226 4.424683
        -19.488623 -1.5951273 4.3866234 -20.258251 -1.7013105 4.3265014
        -21.07057 -1.8203588 4.2410665 -21.928638 -1.9541199 4.126704
        -22.835682 -2.1047542 3.979403 -23.795141 -2.274824 3.7946758
        -24.810675 -2.4673762 3.5674813 -25.886154 -2.6860645 3.2921042
        -27.025661 -2.9353004 2.9620266 -28.233435 -3.2204442 2.569778
        -29.513802 -3.5480545 2.1067839 -30.871094 -3.926206 1.5631889
        -32.30959 -4.3649054 0.92763525 -33.833405 -4.8766136 0.18691313
        -35.44631 -5.4768887 -0.6746304 -37.151234 -6.1851373 -1.6760092
        -38.949135 -7.025378 -2.8409564 -40.836586 -8.026839 -4.199555
        -42.80146 -9.224024 -5.7897296 -44.815903 -10.655622 -7.6575155
        -46.826283 -12.36133 -9.854308 -48.741108 -14.375336 -12.428522
        -50.419834 -16.715296 -15.408919 -51.668518 -19.366182 -18.778074
        -52.251385 -22.260529 -22.437916 -51.927567 -25.260212 -26.176065
        -50.517097 -28.14927 -29.649479 -47.985603 -30.649822 -32.40686
        -44.51685 -32.46852 -33.96338 -40.53018 -33.36663 -33.91713
        -36.614 -33.229 -32.065075 -33.388416 -32.09965 -28.463278
        -31.35387 -30.165129 -23.398975 -20.244751 -18.308725 -11.321028
        -0.042749405 -0.4233322 0.080049515 0.022951126 -0.4309883 0.11475277
        0.07112694 -0.42726326 0.16199112 0.10196495 -0.4166355 0.2134695
        0.1182127 -0.40272093 0.26338625 0.12351227 -0.38801146 0.3083992
        -9.3355665 -0.627841 3.3352962 -9.663933 -0.6414065 3.415286
        -10.002943 -0.6557894 3.4953117 -10.353044 -0.67108536 3.5751276
        -10.714742 -0.68740314 3.654462 -11.088614 -0.70486665 3.7330127
        -11.475313 -0.72361654 3.810441 -11.875583 -0.74381286 3.8863657
        -12.290268 -0.7656374 3.9603534 -12.720325 -0.7892964 4.031908
        -13.166832 -0.8150244 4.10046 -13.631001 -0.84308755 4.1653485
        -14.114187 -0.8737881 4.225807 -14.617896 -0.9074692 4.2809443
        -15.143791 -0.94452107 4.3297215 -15.693699 -0.98538667 4.3709316
        -16.269608 -1.0305701 4.4031734 -16.873669 -1.0806454 4.424831
        -17.5082 -1.1362672 4.434048 -18.175673 -1.1981834 4.4287066
        -18.878716 -1.2672526 4.4064045 -19.620111 -1.3444613 4.3644357
        -20.40282 -1.4309522 4.2997694 -21.229977 -1.5280535 4.209019
        -22.104929 -1.6373233 4.0884056 -23.031252 -1.7605916 3.9337106
        -24.012825 -1.9000411 3.7401838 -25.05383 -2.0582833 3.5024471
        -26.158815 -2.2384703 3.2143526 -27.332685 -2.4444356 2.8688161
        -28.580715 -2.680875 2.4576232 -29.908535 -2.9535859 1.9712135
        -31.322147 -3.269782 1.3984115 -32.827934 -3.6385012 0.7260603
        -34.432713 -4.071145 -0.0615443 -36.143642 -4.582154 -0.983547
        -37.967842 -5.189823 -2.0639293 -39.911236 -5.9172077 -3.3334882
        -41.975903 -6.792948 -4.832296 -44.155014 -7.851709 -6.6121397
        -46.424316 -9.133627 -8.737683 -48.72947 -10.68179 -11.284058
        -50.96993 -12.536407 -14.327457 -52.982437 -14.724117 -17.924797
        -54.53125 -17.241268 -22.07902 -55.317078 -20.03212 -26.69152
        -55.018776 -22.966656 -31.511406 -53.37674 -25.828617 -36.10481
        -50.30787 -28.328316 -39.876587 -46.011276 -30.15121 -42.169834
        -41.001846 -31.036648 -42.431698 -36.025158 -30.858284 -40.38487
        -31.869362 -29.666092 -36.117653 -29.156986 -27.666714 -30.041832
        -28.212856 -25.153149 -22.74253 -0.062091827 -0.3687334 0.009233475
        0.018075943 -0.38500214 0.049430847 0.07591057 -0.38857841 0.10598755
        0.1121273 -0.38416195 0.16786194 0.13061714 -0.37555552 0.22754526
        0.13613892 -0.3653841 0.28090906 -9.361411 -0.54421276 3.3432667
        -9.690979 -0.5543672 3.4229765 -10.031287 -0.56513834 3.502674
        -10.382797 -0.5765985 3.5821118 -10.746028 -0.58883005 3.661016
        -11.121572 -0.60192645 3.7390811 -11.510098 -0.61599433 3.8159657
        -11.912374 -0.6311549 3.8912852 -12.329264 -0.6475457 3.9646013
        -12.76175 -0.6653234 4.0354137 -13.210941 -0.68466574 4.1031446
        -13.678082 -0.70577514 4.1671267 -14.164567 -0.72888136 4.2265816
        -14.671943 -0.75424576 4.2806063 -15.201924 -0.7821656 4.328144
        -15.756393 -0.81297934 4.3679676 -16.337404 -0.8470724 4.39865
        -16.947184 -0.8848847 4.418544 -17.588133 -0.9269188 4.425753
        -18.26282 -0.9737503 4.4181113 -18.973993 -1.026041 4.393158
        -19.724579 -1.0845549 4.348116 -20.517694 -1.1501781 4.2798653
        -21.35668 -1.2239468 4.18491 -22.24511 -1.3070726 4.059341
        -23.18687 -1.4009972 3.8987646 -24.186197 -1.5074381 3.698215
        -25.24773 -1.6284628 3.4520354 -26.376583 -1.7665796 3.1537147
        -27.578373 -1.9248558 2.795692 -28.859282 -2.1070733 2.369125
        -30.226093 -2.3179338 1.863606 -31.686298 -2.5633328 1.2668129
        -33.248203 -2.8507254 0.5640076 -34.921097 -3.1896062 -0.26273572
        -36.715347 -3.5921345 -1.2357312 -38.642117 -4.073907 -2.3835301
        -40.712234 -4.6548448 -3.7435412 -42.933445 -5.3601007 -5.365356
        -45.3048 -6.220708 -7.3142447 -47.80683 -7.2734632 -9.673402
        -50.386536 -8.559192 -12.542233 -52.937325 -10.118092 -16.02648
        -55.276917 -11.980474 -20.214558 -57.13145 -14.151556 -25.135178
        -58.14016 -16.590427 -30.695759 -57.9003 -19.187176 -36.612514
        -56.06711 -21.748016 -42.361496 -52.50078 -24.003801 -47.196457
        -47.409637 -25.65473 -50.27292 -41.40431 -26.448391 -50.87038
        -35.393993 -26.261848 -48.628307 -30.342236 -25.145094 -43.67236
        -26.995993 -23.300245 -36.554554 -25.719854 -21.009861 -28.045105
        -0.091869354 -0.29337406 -0.042518616 0.0038204193 -0.3206463 -0.0012950897
        0.07240105 -0.33445358 0.061174393 0.11508751 -0.33921957 0.13079643
        0.13683128 -0.3386097 0.19818592 0.14353657 -0.33523798 0.25829935
        -9.380285 -0.45954174 3.3495302 -9.710722 -0.46619862 3.4290512
        -10.051972 -0.47326413 3.5085263 -10.404503 -0.48078638 3.5877056
        -10.768843 -0.48882046 3.6663141 -11.145595 -0.49742883 3.744044
        -11.535443 -0.5066827 3.820552 -11.939167 -0.51666313 3.8954508
        -12.357649 -0.52746236 3.9682992 -12.791889 -0.5391851 4.0385923
        -13.243018 -0.5519508 4.1057487 -13.712305 -0.5658951 4.1690936
        -14.201169 -0.58117247 4.2278433 -14.711192 -0.5979587 4.281082
        -15.244123 -0.61645395 4.327744 -15.801885 -0.6368865 4.366585
        -16.386578 -0.6595166 4.3961596 -17.000484 -0.6846415 4.4147973
        -17.646069 -0.71260196 4.420573 -18.325972 -0.7437886 4.4112864
        -19.043032 -0.77865136 4.384433 -19.80027 -0.8177109 4.3371825
        -20.60093 -0.86157244 4.266351 -21.4485 -0.9109466 4.168362
        -22.346733 -0.9666644 4.0392065 -23.299738 -1.0297191 3.8743641
        -24.312027 -1.1012982 3.6687086 -25.388588 -1.1828351 3.4163723
        -26.53496 -1.2760751 3.1105711 -27.75732 -1.3831615 2.7433858
        -29.062542 -1.5067478 2.3054895 -30.458328 -1.6501501 1.7858312
        -31.953333 -1.8175471 1.171198 -33.557404 -2.014255 0.44561392
        -35.281853 -2.2470913 -0.41060054 -37.13966 -2.5248485 -1.422299
        -39.14535 -2.8588996 -2.6217306 -41.313953 -3.2639117 -4.051724
        -43.65818 -3.7586026 -5.7697835 -46.18244 -4.3663692 -7.852561
        -48.87213 -5.1154146 -10.399171 -51.676613 -6.0377016 -13.530333
        -54.486 -7.165777 -17.378414 -57.10402 -8.525984 -22.06137
        -59.226334 -10.126925 -27.63395 -60.440536 -11.942836 -34.0136
        -60.272453 -13.894592 -40.89232 -58.299816 -15.835983 -47.66918
        -54.327827 -17.5579 -53.461727 -48.568283 -18.822638 -57.25151
        -41.71487 -19.427385 -58.159412 -34.823612 -19.273226 -55.74595
        -29.015667 -18.401295 -50.17282 -25.14753 -16.974598 -42.125664
        -23.615038 -15.218765 -32.54811 -16.245895 -8.950831 -14.881153
        -0.021846771 -0.24386168 -0.027349472 0.058116913 -0.26937008 0.035251617
        0.10836792 -0.2852049 0.10790157 0.13467789 -0.29446745 0.1792984
        0.1438961 -0.29954934 0.24334049 -9.391767 -0.37416217 3.353751
        -9.722729 -0.3772644 3.4331667 -10.064547 -0.38056228 3.5125165
        -10.417691 -0.3840794 3.5915492 -10.7827 -0.3878429 3.6699882
        -11.160179 -0.39188358 3.7475257 -11.550824 -0.39623663 3.8238163
        -11.95542 -0.40094212 3.898471 -12.37486 -0.40604573 3.971047
        -12.810156 -0.4115995 4.041037 -13.262449 -0.41766268 4.1078568
        -13.733026 -0.42430285 4.1708283 -14.223321 -0.43159693 4.229162
        -14.734935 -0.43963277 4.2819376 -15.269638 -0.44851044 4.3280807
        -15.829379 -0.45834425 4.3663387 -16.416286 -0.46926478 4.395255
        -17.032675 -0.48142147 4.413144 -17.681047 -0.4949858 4.4180636
        -18.36409 -0.51015496 4.4077916 -19.08469 -0.5271564 4.3797975
        -19.845934 -0.5462539 4.3312197 -20.651142 -0.5677549 4.258833
        -21.503887 -0.5920214 4.159013 -22.40804 -0.6194762 4.027689
        -23.36784 -0.6506276 3.8602617 -24.387974 -0.6860833 3.651506
        -25.473642 -0.7265798 3.395426 -26.630657 -0.7730142 3.0850673
        -27.865534 -0.82649124 2.7122862 -29.185598 -0.8883805 2.267457
        -30.599117 -0.9603977 1.7391227 -32.115498 -1.0447083 1.1135097
        -33.745583 -1.1440735 0.3738587 -35.501976 -1.2620411 -0.5006342
        -37.39938 -1.4031996 -1.5364494 -39.454533 -1.5735015 -2.7682326
        -41.685272 -1.7806513 -4.2423596 -44.10769 -2.0345266 -6.0215526
        -46.729958 -2.347538 -8.190033 -49.54101 -2.734745 -10.857647
        -52.49241 -3.2133708 -14.159681 -55.472794 -3.8011646 -18.247
        -58.27758 -4.5128765 -23.25864 -60.582874 -5.354155 -29.2687
        -61.942062 -6.3126535 -36.203743 -61.83225 -7.347624 -43.741585
        -59.77677 -8.381905 -51.229652 -55.540802 -9.303228 -57.690697
        -49.336105 -9.982052 -61.982395 -41.912617 -10.306743 -63.11135
        -34.428467 -10.223125 -60.58065 -28.114765 -9.754658 -54.578056
        -23.903387 -8.98977 -45.88598 -22.209993 -8.051331 -35.572163
        -22.9455 -7.0585794 -24.644981 -0.058567047 -0.16527319 -0.021688461
        0.03236389 -0.20134044 0.03385544 0.09085846 -0.22809052 0.10340118
        0.12300682 -0.24754381 0.1738987 0.13617897 -0.26155126 0.23813581
        -9.395604 -0.28842744 3.3557236 -9.726738 -0.28794703 3.435113
        -10.068741 -0.28744683 3.514429 -10.422086 -0.28692585 3.5934217
        -10.787312 -0.2863829 3.671813 -11.165029 -0.28581694 3.749295
        -11.555931 -0.2852266 3.8255217 -11.960811 -0.28461075 3.9001036
        -12.380561 -0.28396797 3.9725976 -12.816199 -0.28329688 4.0424957
        -13.26887 -0.28259608 4.1092114 -13.739864 -0.28186408 4.1720667
        -14.230624 -0.28109944 4.2302704 -14.742752 -0.28030062 4.2828994
        -15.278029 -0.2794662 4.328877 -15.83841 -0.27859467 4.3669477
        -16.426033 -0.2776848 4.395651 -17.043224 -0.27673534 4.4132957
        -17.692497 -0.2757452 4.4179354 -18.376553 -0.27471372 4.407339
        -19.098295 -0.2736404 4.3789673 -19.860832 -0.27252537 4.329948
        -20.667505 -0.27136937 4.2570434 -21.52192 -0.27017486 4.15661
        -22.427979 -0.26894197 4.02456 -23.38997 -0.26767457 3.856265
        -24.41263 -0.26637727 3.6464677 -25.501234 -0.26505527 3.3891287
        -26.661678 -0.26371437 3.0772374 -27.900593 -0.2623608 2.7025747
        -29.225447 -0.2610002 2.2554193 -30.644691 -0.25963444 1.724173
        -32.167988 -0.25825956 1.0948836 -33.8065 -0.25686017 0.3505292
        -35.57326 -0.25539982 -0.5300641 -37.483543 -0.25381118 -1.5739129
        -39.554836 -0.2519749 -2.8164628 -41.805916 -0.24969842 -4.305261
        -44.254005 -0.24667722 -6.104769 -46.90858 -0.24245563 -8.301745
        -49.75982 -0.23636304 -11.009626 -52.760048 -0.22745332 -14.3686
        -55.79756 -0.21445528 -18.535799 -58.665085 -0.19585009 -23.65744
        -61.032368 -0.17020638 -29.81433 -62.441334 -0.13693428 -36.936363
        -62.352753 -0.09736395 -44.696907 -60.271606 -0.05552745 -52.426365
        -55.949196 -0.017773688 -59.115417 -49.59683 0.008966029 -63.579582
        -41.98279 0.01918456 -64.78604 -34.299435 0.009540409 -62.217617
        -27.814867 -0.019990593 -56.070614 -23.487972 -0.061472982 -47.160423
        -21.740583 -0.10705927 -36.597145 -22.473951 -0.1506468 -25.425913
        -0.10288811 -0.09766701 0.016765594 -0.0029506683 -0.1402278 0.058494568
        0.06352043 -0.17528015 0.11872482 0.102211 -0.20328754 0.18316841
        0.12052345 -0.22521435 0.24356699 -9.391716 -0.20270202 3.3553789
        -9.722664 -0.19863977 3.4348183 -10.064466 -0.19434246 3.5141916
        -10.417594 -0.18978433 3.5932481 -10.782583 -0.18493612 3.6717117
        -11.160043 -0.17976467 3.749273 -11.550662 -0.1742324 3.825588
        -11.955232 -0.1682967 3.9002671 -12.374642 -0.1619092 3.9728673
        -12.809905 -0.15501517 4.0428815 -13.262163 -0.14755255 4.109725
        -13.732697 -0.13945083 4.17272 -14.222946 -0.13063014 4.2310762
        -14.734509 -0.12099974 4.2838736 -15.269152 -0.11045666 4.3300376
        -15.828826 -0.09888384 4.3683147 -16.415657 -0.08614802 4.397249
        -17.03196 -0.072097436 4.4151545 -17.680231 -0.05655863 4.4200883
        -18.363161 -0.0393332 4.4098277 -19.08363 -0.02019295 4.381843
        -19.844723 0.0011255443 4.3332705 -20.649755 0.024928143 4.2608867
        -21.5023 0.051571317 4.1610656 -22.406214 0.08147754 4.029737
        -23.365738 0.11514603 3.8623028 -24.385546 0.15317595 3.6535375
        -25.470827 0.19629139 3.3974485 -26.627384 0.245377 3.0870826
        -27.861713 0.30152306 2.7143018 -29.181116 0.36608666 2.2694907
        -30.593834 0.44077483 1.7412014 -32.109238 0.52775675 1.1156839
        -33.73812 0.6298177 0.37620854 -35.493027 0.75056654 -0.4979782
        -37.38857 0.89471334 -1.5332819 -39.44138 1.0684237 -2.7642322
        -41.66916 1.2797529 -4.2370214 -44.087826 1.5391302 -6.0140967
        -46.70533 1.8598018 -8.179264 -49.51042 2.2580492 -10.841757
        -52.454456 2.7528114 -14.135969 -55.426064 3.364141 -18.211576
        -58.220978 4.1095243 -23.206131 -60.516327 4.997171 -29.192257
        -61.867363 6.0157294 -36.095535 -61.75429 7.1219807 -43.594444
        -59.70418 8.23145 -51.039818 -55.485016 9.220475 -57.461082
        -49.30831 9.9471655 -61.724663 -41.919178 10.289958 -62.84463
        -34.467697 10.188632 -60.3269 -28.178822 9.667683 -54.35605
        -23.981316 8.828254 -45.70639 -22.290442 7.8073206 -35.43675
        -23.02001 6.7352853 -24.548876 -0.14871407 -0.052048206 0.082172394
        -0.04343033 -0.09498072 0.10573959 0.029392242 -0.13373303 0.15192986
        0.074373245 -0.16695142 0.20601654 0.09833145 -0.1944257 0.2590418
        -9.380185 -0.11735024 3.3527844 -9.710594 -0.10973585 3.4323525
        -10.051813 -0.10167365 3.511875 -10.404309 -0.093113385 3.5911024
        -10.768611 -0.083997965 3.6697588 -11.145321 -0.07426254 3.7475371
        -11.535122 -0.06383354 3.824094 -11.938794 -0.052627474 3.8990412
        -12.357217 -0.04054951 3.9719381 -12.791393 -0.027492203 4.0422792
        -13.242449 -0.013333471 4.109483 -13.711653 0.0020652106 4.172875
        -14.200424 0.018861068 4.2316694 -14.710343 0.037232716 4.284952
        -15.243157 0.05738309 4.3316555 -15.800785 0.07954299 4.3705354
        -16.385326 0.10397509 4.4001465 -16.999063 0.1309788 4.4188166
        -17.64445 0.16089624 4.4246216 -18.324127 0.19411919 4.4153576
        -19.040928 0.23109767 4.388522 -19.797869 0.2723515 4.341284
        -20.598185 0.3184835 4.270458 -21.445354 0.37019792 4.172467
        -22.34312 0.4283243 4.0433035 -23.295582 0.49384534 3.8784463
        -24.307228 0.5679372 3.6727715 -25.38303 0.6520196 3.4204154
        -26.528502 0.747821 3.1145997 -27.749786 0.85746557 2.7474132
        -29.05372 0.98358774 2.309547 -30.447945 1.1294851 1.7899734
        -31.94105 1.2993265 1.1755183 -33.542793 1.4984329 0.45026594
        -35.26437 1.7336525 -0.40537333 -37.118603 2.013855 -1.4161059
        -39.119816 2.3505616 -2.6139667 -41.28279 2.7586927 -4.041451
        -43.61992 3.257371 -5.755555 -46.13527 3.8706112 -7.8321676
        -48.81385 4.6275153 -10.369295 -51.60479 5.561312 -13.48608
        -54.398228 6.706222 -17.312798 -56.99861 8.090555 -21.964884
        -59.10343 9.724702 -27.49456 -60.303833 11.583504 -33.817856
        -60.13106 13.585901 -40.62816 -58.169155 15.580346 -47.33062
        -54.22795 17.349716 -53.054394 -48.5185 18.647766 -56.795822
        -41.726288 19.264835 -57.688614 -34.89417 19.09801 -55.297962
        -29.131592 18.18959 -49.779835 -25.28875 16.710016 -41.806355
        -23.761421 14.894403 -32.305973 -16.399456 8.626764 -14.677367
        -0.18899155 -0.034028053 0.16342354 -0.08333969 -0.07098293 0.16811371
        -0.0070705414 -0.10810184 0.19810581 0.04282379 -0.14231396 0.23930454
        0.07202244 -0.17213035 0.28258705 -9.361263 -0.03272538 3.3481445
        -9.690788 -0.021617543 3.4279244 -10.031052 -0.009854182 3.507693
        -10.38251 0.0026389335 3.5872025 -10.745685 0.015946247 3.6661787
        -11.121165 0.03016359 3.7443166 -11.509622 0.045399785 3.8212743
        -11.911819 0.061778363 3.8966665 -12.328622 0.0794395 3.970055
        -12.761012 0.098542295 4.0409393 -13.210095 0.11926725 4.1087418
        -13.677114 0.14181918 4.1727934 -14.163462 0.16643056 4.2323165
        -14.670684 0.19336538 4.2864065 -15.200492 0.2229234 4.334007
        -15.754764 0.2554453 4.373889 -16.33555 0.29131866 4.404626
        -16.945074 0.33098477 4.424568 -17.585733 0.3749474 4.431821
        -18.260088 0.42378256 4.4242144 -18.970882 0.4781515 4.399289
        -19.721027 0.53881603 4.354265 -20.513638 0.606659 4.286023
        -21.352036 0.68270916 4.191066 -22.239782 0.768174 4.0654845
        -23.180746 0.8644824 3.9048862 -24.179136 0.97333807 3.7043087
        -25.239567 1.0967904 3.458098 -26.367111 1.2373254 3.1597524
        -27.567347 1.3979843 2.8017244 -28.84639 1.5825186 2.3751912