# vtk DataFile Version 3.0
T01 + IGRF magnetic field in GSW coordinates
ASCII
DATASET STRUCTURED_GRID
DIMENSIONS     61    21    21
POINTS    26901 float
     -50.000000     -10.000000     -10.000000
     -49.000000     -10.000000     -10.000000
     -48.000000     -10.000000     -10.000000
     -47.000000     -10.000000     -10.000000
     -46.000000     -10.000000     -10.000000
     -45.000000     -10.000000     -10.000000
     -44.000000     -10.000000     -10.000000
     -43.000000     -10.000000     -10.000000
     -42.000000     -10.000000     -10.000000
     -41.000000     -10.000000     -10.000000
     -40.000000     -10.000000     -10.000000
     -39.000000     -10.000000     -10.000000
     -38.000000     -10.000000     -10.000000
     -37.000000     -10.000000     -10.000000
     -36.000000     -10.000000     -10.000000
     -35.000000     -10.000000     -10.000000
     -34.000000     -10.000000     -10.000000
     -33.000000     -10.000000     -10.000000
     -32.000000     -10.000000     -10.000000
     -31.000000     -10.000000     -10.000000
     -30.000000     -10.000000     -10.000000
     -29.000000     -10.000000     -10.000000
     -28.000000     -10.000000     -10.000000
     -27.000000     -10.000000     -10.000000
     -26.000000     -10.000000     -10.000000
     -25.000000     -10.000000     -10.000000
     -24.000000     -10.000000     -10.000000
     -23.000000     -10.000000     -10.000000
     -22.000000     -10.000000     -10.000000
     -21.000000     -10.000000     -10.000000
     -20.000000     -10.000000     -10.000000
     -19.000000     -10.000000     -10.000000
     -18.000000     -10.000000     -10.000000
     -17.000000     -10.000000     -10.000000
     -16.000000     -10.000000     -10.000000
     -15.000000     -10.000000     -10.000000
     -14.000000     -10.000000     -10.000000
     -13.000000     -10.000000     -10.000000
     -12.000000     -10.000000     -10.000000
     -11.000000     -10.000000     -10.000000
     -10.000000     -10.000000     -10.000000
      -9.000000     -10.000000     -10.000000
      -8.000000     -10.000000     -10.000000
      -7.000000     -10.000000     -10.000000
      -6.000000     -10.000000     -10.000000
      -5.000000     -10.000000     -10.000000
      -4.000000     -10.000000     -10.000000
      -3.000000     -10.000000     -10.000000
      -2.000000     -10.000000     -10.000000
      -1.000000     -10.000000     -10.000000
       0.000000     -10.000000     -10.000000
       1.000000     -10.000000     -10.000000
       2.000000     -10.000000     -10.000000
       3.000000     -10.000000     -10.000000
       4.000000     -10.000000     -10.000000
       5.000000     -10.000000     -10.000000
       6.000000     -10.000000     -10.000000
       7.000000     -10.000000     -10.000000
       8.000000     -10.000000     -10.000000
       9.000000     -10.000000     -10.000000
      10.000000     -10.000000     -10.000000
     -50.000000      -9.000000     -10.000000
     -49.000000      -9.000000     -10.000000
     -48.000000      -9.000000     -10.000000
     -47.000000      -9.000000     -10.000000
     -46.000000      -9.000000     -10.000000
     -45.000000      -9.000000     -10.000000
     -44.000000      -9.000000     -10.000000
     -43.000000      -9.000000     -10.000000
     -42.000000      -9.000000     -10.000000
     -41.000000      -9.000000     -10.000000
     -40.000000      -9.000000     -10.000000
     -39.000000      -9.000000     -10.000000
     -38.000000      -9.000000     -10.000000
     -37.000000      -9.000000     -10.000000
     -36.000000      -9.000000     -10.000000
     -35.000000      -9.000000     -10.000000
     -34.000000      -9.000000     -10.000000
     -33.000000      -9.000000     -10.000000
     -32.000000      -9.000000     -10.000000
     -31.000000      -9.000000     -10.000000
     -30.000000      -9.000000     -10.000000
     -29.000000      -9.000000     -10.000000
     -28.000000      -9.000000     -10.000000
     -27.000000      -9.000000     -10.000000
     -26.000000      -9.000000     -10.000000
     -25.000000      -9.000000     -10.000000
     -24.000000      -9.000000     -10.000000
     -23.000000      -9.000000     -10.000000
     -22.000000      -9.000000     -10.000000
     -21.000000      -9.000000     -10.000000
     -20.000000      -9.000000     -10.000000
     -19.000000      -9.000000     -10.000000
     -18.000000      -9.000000     -10.000000
     -17.000000      -9.000000     -10.000000
     -16.000000      -9.000000     -10.000000
     -15.000000      -9.000000     -10.000000
     -14.000000      -9.000000     -10.000000
     -13.000000      -9.000000     -10.000000
     -12.000000      -9.000000     -10.000000
     -11.000000      -9.000000     -10.000000
     -10.000000      -9.000000     -10.000000
      -9.000000      -9.000000     -10.000000
      -8.000000      -9.000000     -10.000000
      -7.000000      -9.000000     -10.000000
      -6.000000      -9.000000     -10.000000
      -5.000000      -9.000000     -10.000000
      -4.000000      -9.000000     -10.000000
      -3.000000      -9.000000     -10.000000
      -2.000000      -9.000000     -10.000000
      -1.000000      -9.000000     -10.000000
       0.000000      -9.000000     -10.000000
       1.000000      -9.000000     -10.000000
       2.000000      -9.000000     -10.000000
       3.000000      -9.000000     -10.000000
       4.000000      -9.000000     -10.000000
       5.000000      -9.000000     -10.000000
       6.000000      -9.000000     -10.000000
       7.000000      -9.000000     -10.000000
       8.000000      -9.000000     -10.000000
       9.000000      -9.000000     -10.000000
      10.000000      -9.000000     -10.000000
     -50.000000      -8.000000     -10.000000
     -49.000000      -8.000000     -10.000000
     -48.000000      -8.000000     -10.000000
     -47.000000      -8.000000     -10.000000
     -46.000000      -8.000000     -10.000000
     -45.000000      -8.000000     -10.000000
     -44.000000      -8.000000     -10.000000
     -43.000000      -8.000000     -10.000000
     -42.000000      -8.000000     -10.000000
     -41.000000      -8.000000     -10.000000
     -40.000000      -8.000000     -10.000000
     -39.000000      -8.000000     -10.000000
     -38.000000      -8.000000     -10.000000
     -37.000000      -8.000000     -10.000000
     -36.000000      -8.000000     -10.000000
     -35.000000      -8.000000     -10.000000
     -34.000000      -8.000000     -10.000000
     -33.000000      -8.000000     -10.000000
     -32.000000      -8.000000     -10.000000
     -31.000000      -8.000000     -10.000000
     -30.000000      -8.000000     -10.000000
     -29.000000      -8.000000     -10.000000
     -28.000000      -8.000000     -10.000000
     -27.000000      -8.000000     -10.000000
     -26.000000      -8.000000     -10.000000
     -25.000000      -8.000000     -10.000000
     -24.000000      -8.000000     -10.000000
     -23.000000      -8.000000     -10.000000
     -22.000000      -8.000000     -10.000000
     -21.000000      -8.000000     -10.000000
     -20.000000      -8.000000     -10.000000
     -19.000000      -8.000000     -10.000000
     -18.000000      -8.000000     -10.000000
     -17.000000      -8.000000     -10.000000
     -16.000000      -8.000000     -10.000000
     -15.000000      -8.000000     -10.000000
     -14.000000      -8.000000     -10.000000
     -13.000000      -8.000000     -10.000000
     -12.000000      -8.000000     -10.000000
     -11.000000      -8.000000     -10.000000
     -10.000000      -8.000000     -10.000000
      -9.000000      -8.000000     -10.000000
      -8.000000      -8.000000     -10.000000
      -7.000000      -8.000000     -10.000000
      -6.000000      -8.000000     -10.000000
      -5.000000      -8.000000     -10.000000
      -4.000000      -8.000000     -10.000000
      -3.000000      -8.000000     -10.000000
      -2.000000      -8.000000     -10.000000
      -1.000000      -8.000000     -10.000000
       0.000000      -8.000000     -10.000000
       1.000000      -8.000000     -10.000000
       2.000000      -8.000000     -10.000000
       3.000000      -8.000000     -10.000000
       4.000000      -8.000000     -10.000000
       5.000000      -8.000000     -10.000000
       6.000000      -8.000000     -10.000000
       7.000000      -8.000000     -10.000000
       8.000000      -8.000000     -10.000000
       9.000000      -8.000000     -10.000000
      10.000000      -8.000000     -10.000000
     -50.000000      -7.000000     -10.000000
     -49.000000      -7.000000     -10.000000
     -48.000000      -7.000000     -10.000000
     -47.000000      -7.000000     -10.000000
     -46.000000      -7.000000     -10.000000
     -45.000000      -7.000000     -10.000000
     -44.000000      -7.000000     -10.000000
     -43.000000      -7.000000     -10.000000
     -42.000000      -7.000000     -10.000000
     -41.000000      -7.000000     -10.000000
     -40.000000      -7.000000     -10.000000
     -39.000000      -7.000000     -10.000000
     -38.000000      -7.000000     -10.000000
     -37.000000      -7.000000     -10.000000
     -36.000000      -7.000000     -10.000000
     -35.000000      -7.000000     -10.000000
     -34.000000      -7.000000     -10.000000
     -33.000000      -7.000000     -10.000000
     -32.000000      -7.000000     -10.000000
     -31.000000      -7.000000     -10.000000
     -30.000000      -7.000000     -10.000000
     -29.000000      -7.000000     -10.000000
     -28.000000      -7.000000     -10.000000
     -27.000000      -7.000000     -10.000000
     -26.000000      -7.000000     -10.000000
     -25.000000      -7.000000     -10.000000
[...]
POINT_DATA    26901
VECTORS B_total float
  -1.0660131E+01  -1.5991884E+00   3.1369846E+00
  -1.1012285E+01  -1.6430564E+00   3.2261453E+00
  -1.1373229E+01  -1.6884035E+00   3.3161089E+00
  -1.1743124E+01  -1.7353876E+00   3.4065392E+00
  -1.2122169E+01  -1.7841922E+00   3.4970517E+00
  -1.2510604E+01  -1.8350292E+00   3.5872099E+00
  -1.2908724E+01  -1.8881432E+00   3.6765184E+00
  -1.3316875E+01  -1.9438133E+00   3.7644162E+00
  -1.3735470E+01  -2.0023584E+00   3.8502688E+00
  -1.4164997E+01  -2.0641394E+00   3.9333587E+00
  -1.4606015E+01  -2.1295643E+00   4.0128765E+00
  -1.5059167E+01  -2.1990931E+00   4.0879116E+00
  -1.5525179E+01  -2.2732408E+00   4.1574383E+00
  -1.6004862E+01  -2.3525858E+00   4.2203074E+00
  -1.6499109E+01  -2.4377725E+00   4.2752333E+00
  -1.7008892E+01  -2.5295224E+00   4.3207855E+00
  -1.7535242E+01  -2.6286385E+00   4.3553796E+00
  -1.8079254E+01  -2.7360179E+00   4.3772717E+00
  -1.8642050E+01  -2.8526623E+00   4.3845549E+00
  -1.9224766E+01  -2.9796941E+00   4.3751621E+00
  -1.9828526E+01  -3.1183734E+00   4.3468738E+00
  -2.0454399E+01  -3.2701211E+00   4.2973280E+00
  -2.1103376E+01  -3.4365458E+00   4.2240391E+00
  -2.1776314E+01  -3.6194782E+00   4.1244178E+00
  -2.2473894E+01  -3.8210087E+00   3.9957991E+00
  -2.3196552E+01  -4.0435376E+00   3.8354671E+00
  -2.3944408E+01  -4.2898288E+00   3.6407003E+00
  -2.4717155E+01  -4.5630727E+00   3.4087987E+00
  -2.5513922E+01  -4.8669567E+00   3.1371462E+00
  -2.6333101E+01  -5.2057419E+00   2.8232985E+00
  -2.7172138E+01  -5.5843511E+00   2.4651074E+00
  -2.8027260E+01  -6.0084519E+00   2.0609097E+00
  -2.8893198E+01  -6.4845319E+00   1.6097947E+00
  -2.9762880E+01  -7.0199604E+00   1.1119516E+00
  -3.0627151E+01  -7.6229801E+00   5.6909966E-01
  -3.1474510E+01  -8.3025999E+00  -1.5022993E-02
  -3.2290905E+01  -9.0682974E+00  -6.3414836E-01
  -3.3059605E+01  -9.9294033E+00  -1.2789738E+00
  -3.3761089E+01  -1.0894039E+01  -1.9366755E+00
  -3.4373070E+01  -1.1967443E+01  -2.5904055E+00
  -3.4870636E+01  -1.3149508E+01  -3.2186332E+00
  -3.5226799E+01  -1.4431536E+01  -3.7941508E+00
  -3.5413895E+01  -1.5792414E+01  -4.2825322E+00
  -3.5406509E+01  -1.7194691E+01  -4.6400633E+00
  -3.5186577E+01  -1.8581543E+01  -4.8115134E+00
  -3.4750988E+01  -1.9876020E+01  -4.7287831E+00
  -3.4120888E+01  -2.0983904E+01  -4.3116765E+00
  -3.3350597E+01  -2.1801195E+01  -3.4718490E+00
  -2.8704672E+01  -1.9650402E+01  -1.8171401E+00
  -9.6058369E-02  -4.3973827E-01   4.3266010E-01
  -7.8419685E-02  -4.6696091E-01   4.2322493E-01
  -5.4746628E-02  -4.8790741E-01   4.1790771E-01
  -2.7719498E-02  -5.0065231E-01   4.1751051E-01
  -4.2676926E-04  -5.0451660E-01   4.2198229E-01
   2.4328709E-02  -5.0009441E-01   4.3050134E-01
   4.4561863E-02  -4.8893452E-01   4.4175184E-01
   5.9296131E-02  -4.7307062E-01   4.5427203E-01
   6.8486691E-02  -4.5456553E-01   4.6676767E-01
   7.2753429E-02  -4.3520451E-01   4.7826904E-01
   7.3077679E-02  -4.1632795E-01   4.8819470E-01
   7.0518970E-02  -3.9880419E-01   4.9630034E-01
  -1.0710216E+01  -1.4896518E+00   3.1291499E+00
  -1.1063805E+01  -1.5297961E+00   3.2163200E+00
  -1.1426326E+01  -1.5712774E+00   3.3041062E+00
  -1.1797967E+01  -1.6142386E+00   3.3921649E+00
  -1.2178952E+01  -1.6588469E+00   3.4801066E+00
  -1.2569555E+01  -1.7052950E+00   3.5674875E+00
  -1.2970101E+01  -1.7538062E+00   3.6538064E+00
  -1.3380975E+01  -1.8046356E+00   3.7384958E+00
  -1.3802628E+01  -1.8580753E+00   3.8209136E+00
  -1.4235588E+01  -1.9144560E+00   3.9003346E+00
  -1.4680461E+01  -1.9741535E+00   3.9759417E+00
  -1.5137938E+01  -2.0375910E+00   4.0468121E+00
  -1.5608797E+01  -2.1052458E+00   4.1119094E+00
  -1.6093904E+01  -2.1776538E+00   4.1700706E+00
  -1.6594215E+01  -2.2554169E+00   4.2199941E+00
  -1.7110762E+01  -2.3392091E+00   4.2602282E+00
  -1.7644653E+01  -2.4297879E+00   4.2891655E+00
  -1.8197062E+01  -2.5280035E+00   4.3050313E+00
  -1.8769197E+01  -2.6348138E+00   4.3058820E+00
  -1.9362303E+01  -2.7512991E+00   4.2896047E+00
  -1.9977621E+01  -2.8786860E+00   4.2539186E+00
  -2.0616364E+01  -3.0183706E+00   4.1963835E+00
  -2.1279696E+01  -3.1719522E+00   4.1144123E+00
  -2.1968678E+01  -3.3412728E+00   4.0052838E+00
  -2.2684233E+01  -3.5284631E+00   3.8661578E+00
  -2.3427090E+01  -3.7360015E+00   3.6940913E+00
  -2.4197723E+01  -3.9667850E+00   3.4860706E+00
  -2.4996243E+01  -4.2242098E+00   3.2390196E+00
  -2.5822269E+01  -4.5122671E+00   2.9498477E+00
  -2.6674788E+01  -4.8356619E+00   2.6155102E+00
  -2.7551929E+01  -5.1999321E+00   2.2331023E+00
  -2.8450741E+01  -5.6116023E+00   1.8000040E+00
  -2.9366894E+01  -6.0783319E+00   1.3140827E+00
  -3.0294371E+01  -6.6090565E+00   7.7395624E-01
  -3.1225124E+01  -7.2140789E+00   1.7930456E-01
  -3.2148701E+01  -7.9050655E+00  -4.6877921E-01
  -3.3051788E+01  -8.6948280E+00  -1.1674249E+00
  -3.3917656E+01  -9.5967588E+00  -1.9115858E+00
  -3.4725491E+01  -1.0623723E+01  -2.6935494E+00
  -3.5449520E+01  -1.1786175E+01  -3.5021949E+00
  -3.6058231E+01  -1.3089287E+01  -4.3217573E+00
  -3.6513905E+01  -1.4528877E+01  -5.1296945E+00
  -3.6773403E+01  -1.6086414E+01  -5.8934793E+00
  -3.6791222E+01  -1.7723400E+01  -6.5663080E+00
  -3.6526146E+01  -1.9376513E+01  -7.0825768E+00
  -3.5952126E+01  -2.0955246E+01  -7.3547254E+00
  -3.5072605E+01  -2.2344332E+01  -7.2738633E+00
  -3.3935257E+01  -2.3412834E+01  -6.7162561E+00
  -3.2641899E+01  -2.4030256E+01  -5.5563817E+00
  -3.1347605E+01  -2.4087076E+01  -3.6839871E+00
  -1.0691118E-01  -4.9437523E-01   3.7889242E-01
  -7.4606419E-02  -5.2250481E-01   3.6847734E-01
  -3.7322521E-02  -5.3956795E-01   3.6619616E-01
   2.1743774E-04  -5.4460907E-01   3.7203455E-01
   3.3797264E-02  -5.3855228E-01   3.8460302E-01
   6.0581207E-02  -5.2369785E-01   4.0166759E-01
   7.9319954E-02  -5.0296497E-01   4.2079020E-01
   9.0220451E-02  -4.7924328E-01   4.3983960E-01
   9.4391346E-02  -4.5488548E-01   4.5730394E-01
   9.3396664E-02  -4.3158913E-01   4.7230941E-01
   8.8829517E-02  -4.1037488E-01   4.8453736E-01
  -1.0745198E+01  -1.3734460E+00   3.1189470E+00
  -1.1099763E+01  -1.4096652E+00   3.2042735E+00
  -1.1463384E+01  -1.4470760E+00   3.2900541E+00
  -1.1836273E+01  -1.4858067E+00   3.3759415E+00
  -1.2218682E+01  -1.5260071E+00   3.4615412E+00
  -1.2610910E+01  -1.5678509E+00   3.5464070E+00
  -1.3013313E+01  -1.6115389E+00   3.6300340E+00
  -1.3426310E+01  -1.6573014E+00   3.7118504E+00
  -1.3850388E+01  -1.7054023E+00   3.7912109E+00
  -1.4286114E+01  -1.7561411E+00   3.8673868E+00
  -1.4734136E+01  -1.8098589E+00   3.9395554E+00
  -1.5195189E+01  -1.8669411E+00   4.0067897E+00
  -1.5670103E+01  -1.9278226E+00   4.0680461E+00
  -1.6159796E+01  -1.9929947E+00   4.1221533E+00
  -1.6665277E+01  -2.0630100E+00   4.1677990E+00
  -1.7187653E+01  -2.1384919E+00   4.2035203E+00
  -1.7728092E+01  -2.2201431E+00   4.2276912E+00
  -1.8287851E+01  -2.3087578E+00   4.2385154E+00
  -1.8868237E+01  -2.4052365E+00   4.2340202E+00
  -1.9470594E+01  -2.5106041E+00   4.2120533E+00
  -2.0096294E+01  -2.6260319E+00   4.1702814E+00
  -2.0746704E+01  -2.7528675E+00   4.1061954E+00
  -2.1423166E+01  -2.8926682E+00   4.0171127E+00
  -2.2126966E+01  -3.0472467E+00   3.9001837E+00
  -2.2859297E+01  -3.2187247E+00   3.7523961E+00
  -2.3621225E+01  -3.4095986E+00   3.5705907E+00
  -2.4413614E+01  -3.6228218E+00   3.3514490E+00
  -2.5237064E+01  -3.8619049E+00   3.0915117E+00
  -2.6091789E+01  -4.1310344E+00   2.7871897E+00
  -2.6977493E+01  -4.4352188E+00   2.4347920E+00
  -2.7893188E+01  -4.7804646E+00   2.0305789E+00
  -2.8836975E+01  -5.1739721E+00   1.5708442E+00
  -2.9805786E+01  -5.6243715E+00   1.0520304E+00
  -3.0795071E+01  -6.1419544E+00   4.7087228E-01
  -3.1798414E+01  -6.7388849E+00  -1.7544770E-01
  -3.2807026E+01  -7.4293261E+00  -8.8914514E-01
  -3.3809052E+01  -8.2293720E+00  -1.6716657E+00
  -3.4788574E+01  -9.1566048E+00  -2.5234776E+00
  -3.5724216E+01  -1.0229078E+01  -3.4436421E+00
  -3.6587330E+01  -1.1463373E+01  -4.4289017E+00
  -3.7339878E+01  -1.2871398E+01  -5.4718285E+00
  -3.7932629E+01  -1.4455660E+01  -6.5574665E+00
  -3.8304699E+01  -1.6202883E+01  -7.6580200E+00
  -3.8386272E+01  -1.8076447E+01  -8.7256374E+00
  -3.8106468E+01  -2.0008890E+01  -9.6842995E+00
  -3.7408024E+01  -2.1896923E+01  -1.0423398E+01
  -3.6268242E+01  -2.3602304E+01  -1.0796762E+01
  -3.4722530E+01  -2.4962030E+01  -1.0631441E+01
  -3.2882385E+01  -2.5809277E+01  -9.7481565E+00
  -3.0937965E+01  -2.6002419E+01  -7.9908528E+00
  -2.9137903E+01  -2.5454292E+01  -5.2563214E+00
  -1.0113811E-01  -5.5558395E-01   3.0027771E-01
  -5.0105095E-02  -5.7825851E-01   2.9477787E-01
   1.1215210E-03  -5.8500576E-01   3.0243731E-01
   4.6286583E-02  -5.7720566E-01   3.2093096E-01
   8.1350327E-02  -5.5817604E-01   3.4651613E-01
   1.0483742E-01  -5.3200340E-01   3.7518835E-01
   1.1738873E-01  -5.0255156E-01   4.0359181E-01
   1.2093067E-01  -4.7288179E-01   4.2940199E-01
   1.1785030E-01  -4.4503021E-01   4.5139211E-01
   1.1045027E-01  -4.2013574E-01   4.6918404E-01
  -1.0767607E+01  -1.2507375E+00   3.1055071E+00
  -1.1122780E+01  -1.2828511E+00   3.1891165E+00
  -1.1487120E+01  -1.3160101E+00   3.2730432E+00
  -1.1860858E+01  -1.3503274E+00   3.3569381E+00
  -1.2244269E+01  -1.3859355E+00   3.4404051E+00
  -1.2637678E+01  -1.4229884E+00   3.5229964E+00
  -1.3041469E+01  -1.4616640E+00   3.6042061E+00
  -1.3456089E+01  -1.5021669E+00   3.6834617E+00
  -1.3882060E+01  -1.5447317E+00   3.7601171E+00
  -1.4319984E+01  -1.5896258E+00   3.8334424E+00
  -1.4770550E+01  -1.6371534E+00   3.9026148E+00
  -1.5234533E+01  -1.6876595E+00   3.9667051E+00
  -1.5712808E+01  -1.7415348E+00   4.0246682E+00
  -1.6206345E+01  -1.7992214E+00   4.0753288E+00
  -1.6716208E+01  -1.8612186E+00   4.1173706E+00
  -1.7243557E+01  -1.9280922E+00   4.1493220E+00
  -1.7789640E+01  -2.0004828E+00   4.1695461E+00
  -1.8355791E+01  -2.0791187E+00   4.1762323E+00
  -1.8943405E+01  -2.1648304E+00   4.1673841E+00
  -1.9553938E+01  -2.2585692E+00   4.1408181E+00
  -2.0188889E+01  -2.3614311E+00   4.0941558E+00
  -2.0849779E+01  -2.4746864E+00   4.0248251E+00
  -2.1538145E+01  -2.5998166E+00   3.9300566E+00
  -2.2255501E+01  -2.7385609E+00   3.8068805E+00
  -2.3003328E+01  -2.8929741E+00   3.6521211E+00
  -2.3783047E+01  -3.0654984E+00   3.4624004E+00
  -2.4595961E+01  -3.2590566E+00   3.2341065E+00
  -2.5443197E+01  -3.4771585E+00   2.9633908E+00
  -2.6325649E+01  -3.7240462E+00   2.6461527E+00
  -2.7243847E+01  -4.0048599E+00   2.2780254E+00
  -2.8197832E+01  -4.3258553E+00   1.8543763E+00
  -2.9186977E+01  -4.6946530E+00   1.3703108E+00
  -3.0209764E+01  -5.1205373E+00   8.2067746E-01
  -3.1263504E+01  -5.6147919E+00   2.0005871E-01
  -3.2343925E+01  -6.1910305E+00  -4.9726775E-01
  -3.3444584E+01  -6.8654881E+00  -1.2774357E+00
  -3.4555916E+01  -7.6571341E+00  -2.1471033E+00
  -3.5663834E+01  -8.5874634E+00  -3.1135411E+00
  -3.6747555E+01  -9.6796646E+00  -4.1843910E+00
  -3.7776672E+01  -1.0956814E+01  -5.3667302E+00
  -3.8707489E+01  -1.2438606E+01  -6.6647224E+00
  -3.9479256E+01  -1.4136080E+01  -8.0749645E+00
  -4.0011791E+01  -1.6044060E+01  -9.5787907E+00
  -4.0206913E+01  -1.8131416E+01  -1.1131196E+01
  -3.9956825E+01  -2.0330374E+01  -1.2647588E+01
  -3.9162628E+01  -2.2527784E+01  -1.3991726E+01
  -3.7763752E+01  -2.4563053E+01  -1.4970897E+01
  -3.5773834E+01  -2.6238270E+01  -1.5345720E+01
  -3.3311768E+01  -2.7344023E+01  -1.4859821E+01
  -3.0611643E+01  -2.7698608E+01  -1.3286991E+01
  -2.7997871E+01  -2.7190065E+01  -1.0482420E+01
  -2.5825054E+01  -2.5804794E+01  -6.4167185E+00
  -6.7100525E-02  -6.1047554E-01   1.9972515E-01
   1.9292831E-03  -6.1980629E-01   2.0962048E-01
   6.1881065E-02  -6.1065483E-01   2.3638248E-01
   1.0714817E-01  -5.8757782E-01   2.7391815E-01
   1.3607407E-01  -5.5605316E-01   3.1585765E-01
   1.5010548E-01  -5.2110195E-01   3.5700583E-01
   1.5229702E-01  -4.8646355E-01   3.9399636E-01
   1.4622498E-01  -4.5453024E-01   4.2515969E-01
   1.3509083E-01  -4.2648649E-01   4.5012403E-01
  -1.0780131E+01  -1.1217794E+00   3.0891066E+00
  -1.1135639E+01  -1.1496234E+00   3.1711314E+00
  -1.1500408E+01  -1.1783657E+00   3.2533622E+00
  -1.1874688E+01  -1.2081044E+00   3.3354490E+00
  -1.2258774E+01  -1.2389541E+00   3.4169953E+00
  -1.2653013E+01  -1.2710485E+00   3.4975545E+00
  -1.3057815E+01  -1.3045424E+00   3.5766206E+00
  -1.3473654E+01  -1.3396136E+00   3.6536229E+00
  -1.3901082E+01  -1.3764665E+00   3.7279165E+00
  -1.4340733E+01  -1.4153347E+00   3.7987738E+00
  -1.4793329E+01  -1.4564841E+00   3.8653731E+00
  -1.5259686E+01  -1.5002171E+00   3.9267869E+00
  -1.5740718E+01  -1.5468770E+00   3.9819715E+00
  -1.6237442E+01  -1.5968529E+00   4.0297518E+00
  -1.6750975E+01  -1.6505862E+00   4.0688095E+00
  -1.7282532E+01  -1.7085788E+00   4.0976701E+00
  -1.7833431E+01  -1.7714012E+00   4.1146917E+00
  -1.8405071E+01  -1.8397045E+00   4.1180515E+00
  -1.8998943E+01  -1.9142362E+00   4.1057377E+00
  -1.9616610E+01  -1.9958571E+00   4.0755396E+00
  -2.0259693E+01  -2.0855649E+00   4.0250416E+00
  -2.0929873E+01  -2.1845238E+00   3.9516149E+00
  -2.1628868E+01  -2.2941012E+00   3.8524113E+00
  -2.2358433E+01  -2.4159150E+00   3.7243512E+00
  -2.3120337E+01  -2.5518928E+00   3.5641046E+00
  -2.3916365E+01  -2.7043433E+00   3.3680849E+00
  -2.4748264E+01  -2.8760550E+00   3.1323962E+00
  -2.5617739E+01  -3.0704110E+00   2.8528101E+00
  -2.6526390E+01  -3.2915406E+00   2.5247154E+00
  -2.7475655E+01  -3.5445080E+00   2.1430626E+00
  -2.8466700E+01  -3.8355460E+00   1.7022972E+00
  -2.9500330E+01  -4.1723533E+00   1.1962781E+00
  -3.0576807E+01  -4.5644450E+00   6.1815012E-01
  -3.1695625E+01  -5.0235682E+00  -3.9837748E-02
  -3.2855110E+01  -5.5641489E+00  -7.8662515E-01
  -3.4051796E+01  -6.2037401E+00  -1.6327450E+00
  -3.5279285E+01  -6.9633512E+00  -2.5908332E+00
  -3.6526436E+01  -7.8675098E+00  -3.6761122E+00
  -3.7774490E+01  -8.9437485E+00  -4.9065580E+00
  -3.8992905E+01  -1.0221120E+01  -6.3021278E+00
  -4.0133896E+01  -1.1727089E+01  -7.8821592E+00
  -4.1126278E+01  -1.3482157E+01  -9.6595936E+00
  -4.1870193E+01  -1.5491392E+01  -1.1630619E+01
  -4.2236042E+01  -1.7732786E+01  -1.3758972E+01
  -4.2072109E+01  -2.0143183E+01  -1.5955667E+01
  -4.1226509E+01  -2.2605072E+01  -1.8058315E+01
  -3.9586266E+01  -2.4940115E+01  -1.9818911E+01
  -3.7129765E+01  -2.6917536E+01  -2.0912333E+01
  -3.3977276E+01  -2.8283804E+01  -2.0976387E+01
  -3.0414154E+01  -2.8812786E+01  -1.9683302E+01
  -2.6862411E+01  -2.8362759E+01  -1.6823040E+01
  -2.3796314E+01  -2.6917671E+01  -1.2363419E+01
  -2.1628086E+01  -2.4592005E+01  -6.4543343E+00
   1.7099380E-03  -6.3998413E-01   9.2515945E-02
   7.9888344E-02  -6.3075161E-01   1.3008785E-01
   1.3733292E-01  -6.0491085E-01   1.8341160E-01
   1.7234039E-01  -5.6940079E-01   2.4270678E-01
   1.8752003E-01  -5.3035069E-01   3.0030465E-01
   1.8760490E-01  -4.9218321E-01   3.5143948E-01
   1.7762661E-01  -4.5753241E-01   3.9399680E-01
   1.6191864E-01  -4.2757940E-01   4.2771226E-01
  -1.0785439E+01  -9.8700225E-01   3.0709045E+00
  -1.1141087E+01  -1.0104270E+00   3.1515033E+00
  -1.1506078E+01  -1.0346031E+00   3.2322192E+00
  -1.1880674E+01  -1.0596129E+00   3.3127029E+00
  -1.2265190E+01  -1.0855531E+00   3.3925598E+00
  -1.2659993E+01  -1.1125364E+00   3.4713440E+00
  -1.3065514E+01  -1.1406937E+00   3.5485518E+00
  -1.3482251E+01  -1.1701753E+00   3.6236153E+00
  -1.3910782E+01  -1.2011547E+00   3.6958933E+00
  -1.4351768E+01  -1.2338296E+00   3.7646599E+00
  -1.4805962E+01  -1.2684263E+00   3.8290977E+00
  -1.5274212E+01  -1.3052018E+00   3.8882825E+00
  -1.5757474E+01  -1.3444490E+00   3.9411733E+00
  -1.6256800E+01  -1.3865005E+00   3.9865980E+00
  -1.6773357E+01  -1.4317348E+00   4.0232396E+00
  -1.7308413E+01  -1.4805832E+00   4.0496240E+00
  -1.7863342E+01  -1.5335377E+00   4.0641055E+00
  -1.8439615E+01  -1.5911632E+00   4.0648541E+00
  -1.9038807E+01  -1.6541091E+00   4.0498457E+00
  -1.9662571E+01  -1.7231284E+00   4.0168500E+00
  -2.0312656E+01  -1.7990974E+00   3.9634171E+00
  -2.0990885E+01  -1.8830452E+00   3.8868718E+00
  -2.1699160E+01  -1.9761877E+00   3.7842948E+00
  -2.2439459E+01  -2.0799711E+00   3.6525068E+00
  -2.3213829E+01  -2.1961317E+00   3.4880381E+00
  -2.4024406E+01  -2.3267622E+00   3.2871079E+00
  -2.4873392E+01  -2.4744101E+00   3.0455577E+00
  -2.5763048E+01  -2.6421909E+00   2.7587981E+00
  -2.6695700E+01  -2.8339396E+00   2.4217293E+00
  -2.7673693E+01  -3.0544028E+00   2.0286386E+00
  -2.8699377E+01  -3.3094857E+00   1.5730658E+00
  -2.9775055E+01  -3.6065583E+00   1.0476221E+00
  -3.0902895E+01  -3.9548445E+00   4.4372746E-01
  -3.2084763E+01  -4.3658781E+00  -2.4877542E-01
  -3.3321915E+01  -4.8540416E+00  -1.0421803E+00
  -3.4614330E+01  -5.4371328E+00  -1.9516886E+00
  -3.5959511E+01  -6.1368928E+00  -2.9963820E+00
  -3.7350307E+01  -6.9793348E+00  -4.2002573E+00
  -3.8771431E+01  -7.9946213E+00  -5.5929642E+00
  -4.0194096E+01  -9.2160139E+00  -7.2095313E+00
  -4.1568600E+01  -1.0677237E+01  -9.0877943E+00
  -4.2815376E+01  -1.2407367E+01  -1.1261802E+01
  -4.3816078E+01  -1.4422205E+01  -1.3748949E+01
  -4.4408512E+01  -1.6711308E+01  -1.6529015E+01
  -4.4392014E+01  -1.9221264E+01  -1.9515104E+01
  -4.3551308E+01  -2.1837952E+01  -2.2521141E+01
  -4.1705902E+01  -2.4374920E+01  -2.5237713E+01
  -3.8782822E+01  -2.6578175E+01  -2.7235430E+01
  -3.4893791E+01  -2.8157616E+01  -2.8015526E+01
  -3.0379362E+01  -2.8846502E+01  -2.7112564E+01
  -2.5779758E+01  -2.8473675E+01  -2.4222960E+01
  -2.1720047E+01  -2.7018288E+01  -1.9303606E+01
  -1.8746670E+01  -2.4618328E+01  -1.2585477E+01
  -4.4556942E+00  -6.0491428E+00  -1.1964798E+00
   9.8308563E-02  -6.2716770E-01   5.5608749E-03
   1.6973114E-01  -6.0154057E-01   7.8064919E-02
   2.1137619E-01  -5.6519699E-01   1.5837717E-01
   2.2746658E-01  -5.2514410E-01   2.3565578E-01
   2.2483063E-01  -4.8629665E-01   3.0346131E-01
   2.1027279E-01  -4.5138693E-01   3.5922599E-01
   1.8942261E-01  -4.2158294E-01   4.0292045E-01
  -1.0785996E+01  -8.4704471E-01   3.0525901E+00
  -1.1141665E+01  -8.6591798E-01   3.1319549E+00
  -1.1506738E+01  -8.8539463E-01   3.2113695E+00
  -1.1881498E+01  -9.0554130E-01   3.2904854E+00
  -1.2266273E+01  -9.2643642E-01   3.3689096E+00
  -1.2661444E+01  -9.4817132E-01   3.4461985E+00
  -1.3067461E+01  -9.7085184E-01   3.5218518E+00
  -1.3484842E+01  -9.9460053E-01   3.5953038E+00
  -1.3914188E+01  -1.0195580E+00   3.6659167E+00
  -1.4356182E+01  -1.0458851E+00   3.7329700E+00
  -1.4811604E+01  -1.0737662E+00   3.7956493E+00
  -1.5281331E+01  -1.1034113E+00   3.8530350E+00
  -1.5766349E+01  -1.1350592E+00   3.9040899E+00
  -1.6267748E+01  -1.1689829E+00   3.9476457E+00
  -1.6786732E+01  -1.2054924E+00   3.9823885E+00
  -1.7324615E+01  -1.2449427E+00   4.0068450E+00
  -1.7882822E+01  -1.2877398E+00   4.0193682E+00
  -1.8462891E+01  -1.3343508E+00   4.0181246E+00
  -1.9066460E+01  -1.3853155E+00   4.0010805E+00
  -1.9695276E+01  -1.4412612E+00   3.9659889E+00
  -2.0351194E+01  -1.5029221E+00   3.9103746E+00
  -2.1036167E+01  -1.5711628E+00   3.8315203E+00
  -2.1752258E+01  -1.6470104E+00   3.7264471E+00
  -2.2501652E+01  -1.7316927E+00   3.5918889E+00
  -2.3286650E+01  -1.8266920E+00   3.4242530E+00
  -2.4109718E+01  -1.9338028E+00   3.2195890E+00
  -2.4973463E+01  -2.0552239E+00   2.9735005E+00
  -2.5880680E+01  -2.1936617E+00   2.6810753E+00
  -2.6834368E+01  -2.3524697E+00   2.3367701E+00
  -2.7837751E+01  -2.5358315E+00   1.9342611E+00
  -2.8894321E+01  -2.7489920E+00   1.4662454E+00
  -3.0007837E+01  -2.9985569E+00   9.2416036E-01
  -3.1182350E+01  -3.2928724E+00   2.9778242E-01