# vtk DataFile Version 3.0
SM polar seed points transformed to GSW coordinates
ASCII
DATASET POLYDATA
POINTS      288 float
       0.140465       0.000000       1.493409
       0.117233       0.194114       1.482760
       0.049123       0.375000       1.451538
      -0.059225       0.530330       1.401871
      -0.200426       0.649519       1.337144
      -0.364859       0.724444       1.261768
      -0.541317       0.750000       1.180880
      -0.717774       0.724444       1.099991
      -0.882207       0.649519       1.024615
      -1.023409       0.530330       0.959888
      -1.131756       0.375000       0.910221
      -1.199866       0.194114       0.879000
      -1.223098      -0.000000       0.868350
      -1.199866      -0.194114       0.879000
      -1.131756      -0.375000       0.910221
      -1.023409      -0.530330       0.959888
      -0.882207      -0.649519       1.024615
      -0.717774      -0.724444       1.099991
      -0.541317      -0.750000       1.180880
      -0.364859      -0.724444       1.261768
      -0.200426      -0.649519       1.337144
      -0.059225      -0.530330       1.401871
       0.049123      -0.375000       1.451538
       0.117233      -0.194114       1.482760
       0.009771       0.000000       1.499968
      -0.009865       0.164072       1.490967
      -0.067434       0.316964       1.464577
      -0.159014       0.448254       1.422597
      -0.278362       0.548997       1.367888
      -0.417347       0.612327       1.304177
      -0.566495       0.633927       1.235807
      -0.715644       0.612327       1.167437
      -0.854629       0.548997       1.103727
      -0.973977       0.448254       1.049017
      -1.065557       0.316964       1.007037
      -1.123126       0.164073       0.980647
      -1.142762      -0.000000       0.971646
      -1.123126      -0.164073       0.980647
      -1.065557      -0.316964       1.007037
      -0.973977      -0.448254       1.049017
      -0.854628      -0.548997       1.103727
      -0.715644      -0.612327       1.167437
      -0.566495      -0.633927       1.235807
      -0.417347      -0.612327       1.304177
      -0.278362      -0.548997       1.367888
      -0.159014      -0.448254       1.422597
      -0.067434      -0.316964       1.464577
      -0.009865      -0.164073       1.490967
      -0.120997       0.000000       1.495112
      -0.136888       0.132782       1.487828
      -0.183478       0.256515       1.466470
      -0.257592       0.362767       1.432497
      -0.354180       0.444297       1.388221
      -0.466658       0.495549       1.336660
      -0.587363       0.513030       1.281329
      -0.708067       0.495549       1.225998
      -0.820546       0.444297       1.174438
      -0.917133       0.362767       1.130162
      -0.991247       0.256515       1.096188
      -1.037838       0.132782       1.074831
      -1.053729      -0.000000       1.067547
      -1.037838      -0.132782       1.074831
      -0.991247      -0.256515       1.096188
      -0.917133      -0.362767       1.130162
      -0.820546      -0.444297       1.174438
      -0.708067      -0.495549       1.225998
      -0.587363      -0.513030       1.281329
      -0.466659      -0.495549       1.336660
      -0.354180      -0.444297       1.388221
      -0.257592      -0.362767       1.432496
      -0.183478      -0.256515       1.466470
      -0.136888      -0.132782       1.487828
      -0.250844       0.000000       1.478877
      -0.262870       0.100481       1.473365
      -0.298126       0.194114       1.457203
      -0.354211       0.274519       1.431494
      -0.427302       0.336216       1.397988
      -0.512419       0.375000       1.358971
      -0.603760       0.388229       1.317100
      -0.695101       0.375000       1.275229
      -0.780218       0.336216       1.236211
      -0.853309       0.274519       1.202706
      -0.909394       0.194114       1.176997
      -0.944651       0.100481       1.160835
      -0.956676      -0.000000       1.155323
      -0.944651      -0.100481       1.160835
      -0.909394      -0.194114       1.176997
      -0.853309      -0.274519       1.202706
      -0.780218      -0.336216       1.236211
      -0.695101      -0.375000       1.275229
      -0.603760      -0.388229       1.317100
      -0.512419      -0.375000       1.358971
      -0.427302      -0.336216       1.397988
      -0.354211      -0.274519       1.431494
      -0.298126      -0.194114       1.457203
      -0.262870      -0.100481       1.473365
      -0.378782       0.000000       1.451387
      -0.386850       0.067415       1.447688
      -0.410505       0.130236       1.436845
      -0.448134       0.184182       1.419596
      -0.497172       0.225576       1.397117
      -0.554279       0.251597       1.370939
      -0.615562       0.260472       1.342847
      -0.676846       0.251597       1.314754
      -0.733952       0.225576       1.288576
      -0.782991       0.184182       1.266097
      -0.820620       0.130236       1.248848
      -0.844274       0.067415       1.238005
      -0.852343      -0.000000       1.234306
      -0.844274      -0.067415       1.238005
      -0.820620      -0.130236       1.248848
      -0.782991      -0.184182       1.266097
      -0.733952      -0.225576       1.288576
      -0.676846      -0.251597       1.314754
      -0.615562      -0.260472       1.342847
      -0.554279      -0.251597       1.370939
      -0.497172      -0.225576       1.397117
      -0.448134      -0.184182       1.419596
      -0.410505      -0.130236       1.436845
      -0.386850      -0.067415       1.447688
      -0.503838       0.000000       1.412851
      -0.507887       0.033836       1.410995
      -0.519759       0.065367       1.405552
      -0.538646       0.092443       1.396895
      -0.563259       0.113219       1.385612
      -0.591921       0.126279       1.372473
      -0.622680       0.130734       1.358373
      -0.653439       0.126279       1.344274
      -0.682101       0.113219       1.331135
      -0.706714       0.092443       1.319852
      -0.725600       0.065367       1.311195
      -0.737473       0.033836       1.305752
      -0.741522      -0.000000       1.303896
      -0.737473      -0.033836       1.305752
      -0.725600      -0.065367       1.311195
      -0.706714      -0.092443       1.319852
      -0.682101      -0.113219       1.331135
      -0.653439      -0.126279       1.344274
      -0.622680      -0.130734       1.358373
      -0.591921      -0.126279       1.372473
      -0.563259      -0.113219       1.385612
      -0.538646      -0.092443       1.396895
      -0.519759      -0.065367       1.405552
      -0.507887      -0.033836       1.410995
       1.223098       0.000000      -0.868350
       1.199866       0.194114      -0.879000
       1.131756       0.375000      -0.910221
       1.023409       0.530330      -0.959888
       0.882207       0.649519      -1.024615
       0.717774       0.724444      -1.099991
       0.541317       0.750000      -1.180880
       0.364859       0.724444      -1.261768
       0.200426       0.649519      -1.337144
       0.059225       0.530330      -1.401871
      -0.049123       0.375000      -1.451538
      -0.117233       0.194114      -1.482760
      -0.140465      -0.000000      -1.493409
      -0.117233      -0.194114      -1.482760
      -0.049123      -0.375000      -1.451538
       0.059225      -0.530330      -1.401871
       0.200426      -0.649519      -1.337144
       0.364859      -0.724444      -1.261768
       0.541317      -0.750000      -1.180880
       0.717774      -0.724444      -1.099991
       0.882207      -0.649519      -1.024615
       1.023408      -0.530330      -0.959888
       1.131756      -0.375000      -0.910221
       1.199866      -0.194114      -0.879000
       1.142762       0.000000      -0.971646
       1.123126       0.164072      -0.980647
       1.065557       0.316964      -1.007037
       0.973977       0.448254      -1.049017
       0.854628       0.548997      -1.103727
       0.715644       0.612327      -1.167437
       0.566495       0.633927      -1.235807
       0.417347       0.612327      -1.304177
       0.278362       0.548997      -1.367888
       0.159014       0.448254      -1.422597
       0.067434       0.316964      -1.464577
       0.009865       0.164073      -1.490967
      -0.009771      -0.000000      -1.499968
       0.009865      -0.164073      -1.490967
       0.067434      -0.316964      -1.464577
       0.159013      -0.448254      -1.422597
       0.278362      -0.548997      -1.367888
       0.417347      -0.612327      -1.304177
       0.566495      -0.633927      -1.235807
       0.715644      -0.612327      -1.167437
       0.854628      -0.548997      -1.103727
       0.973977      -0.448254      -1.049017
       1.065557      -0.316964      -1.007037
       1.123126      -0.164073      -0.980647
       1.053729       0.000000      -1.067547
       1.037838       0.132782      -1.074831
       0.991247       0.256515      -1.096188
       0.917133       0.362767      -1.130162
       0.820546       0.444297      -1.174438
       0.708067       0.495549      -1.225998
       0.587363       0.513030      -1.281329
       0.466659       0.495549      -1.336660
       0.354180       0.444297      -1.388221
       0.257592       0.362767      -1.432497
       0.183478       0.256515      -1.466470
       0.136888       0.132782      -1.487828
       0.120997      -0.000000      -1.495112
       0.136888      -0.132782      -1.487828
       0.183478      -0.256515      -1.466471
       0.257592      -0.362767      -1.432497
       0.354180      -0.444297      -1.388221
       0.466659      -0.495549      -1.336660
       0.587363      -0.513030      -1.281329
       0.708067      -0.495549      -1.225998
       0.820546      -0.444297      -1.174438
       0.917133      -0.362767      -1.130162
       0.991247      -0.256515      -1.096188
       1.037838      -0.132782      -1.074831
       0.956676       0.000000      -1.155323
       0.944651       0.100481      -1.160835
       0.909394       0.194114      -1.176997
       0.853309       0.274519      -1.202706
       0.780218       0.336216      -1.236211
       0.695101       0.375000      -1.275229
       0.603760       0.388229      -1.317100
       0.512419       0.375000      -1.358971
       0.427302       0.336216      -1.397989
       0.354211       0.274519      -1.431494
       0.298126       0.194114      -1.457203
       0.262870       0.100481      -1.473365
       0.250844      -0.000000      -1.478877
       0.262870      -0.100481      -1.473365
       0.298126      -0.194114      -1.457203
       0.354211      -0.274519      -1.431494
       0.427302      -0.336216      -1.397988
       0.512419      -0.375000      -1.358971
       0.603760      -0.388229      -1.317100
       0.695101      -0.375000      -1.275229
       0.780218      -0.336216      -1.236211
       0.853309      -0.274519      -1.202706
       0.909394      -0.194114      -1.176997
       0.944651      -0.100481      -1.160835
       0.852343       0.000000      -1.234306
       0.844274       0.067415      -1.238005
       0.820620       0.130236      -1.248848
       0.782991       0.184182      -1.266097
       0.733952       0.225576      -1.288576
       0.676846       0.251597      -1.314754
       0.615562       0.260472      -1.342847
       0.554279       0.251597      -1.370939
       0.497172       0.225576      -1.397117
       0.448134       0.184182      -1.419596
       0.410505       0.130236      -1.436845
       0.386850       0.067415      -1.447688
       0.378782      -0.000000      -1.451387
       0.386850      -0.067415      -1.447688
       0.410505      -0.130236      -1.436845
       0.448134      -0.184182      -1.419596
       0.497172      -0.225576      -1.397117
       0.554279      -0.251597      -1.370939
       0.615562      -0.260472      -1.342847
       0.676846      -0.251597      -1.314754
       0.733952      -0.225576      -1.288576
       0.782991      -0.184182      -1.266097
       0.820620      -0.130236      -1.248848
       0.844274      -0.067415      -1.238005
       0.741522       0.000000      -1.303896
       0.737473       0.033836      -1.305752
       0.725600       0.065367      -1.311195
       0.706714       0.092443      -1.319852
       0.682101       0.113219      -1.331135
       0.653439       0.126279      -1.344274
       0.622680       0.130734      -1.358373
       0.591921       0.126279      -1.372473
       0.563259       0.113219      -1.385612
       0.538646       0.092443      -1.396895
       0.519759       0.065367      -1.405552
       0.507887       0.033836      -1.410995
       0.503838      -0.000000      -1.412851
       0.507887      -0.033836      -1.410995
       0.519759      -0.065367      -1.405552
       0.538646      -0.092443      -1.396895
       0.563259      -0.113219      -1.385612
       0.591921      -0.126279      -1.372473
       0.622680      -0.130734      -1.358373
       0.653439      -0.126279      -1.344274
       0.682101      -0.113219      -1.331135
       0.706714      -0.092443      -1.319852
       0.725600      -0.065367      -1.311195
       0.737473      -0.033836      -1.305752
VERTICES      288     576
 1        0
 1        1
 1        2
 1        3
 1        4
 1        5
 1        6
 1        7
 1        8
 1        9
 1       10
 1       11
 1       12
 1       13
 1       14
 1       15
 1       16
 1       17
 1       18
 1       19
 1       20
 1       21
 1       22
 1       23
 1       24
 1       25
 1       26
 1       27
 1       28
 1       29
 1       30
 1       31
 1       32
 1       33
 1       34
 1       35
 1       36
 1       37
 1       38
 1       39
 1       40
 1       41
 1       42
 1       43
 1       44
 1       45
 1       46
 1       47
 1       48
 1       49
 1       50
 1       51
 1       52
 1       53
 1       54
 1       55
 1       56
 1       57
 1       58
 1       59
 1       60
 1       61
 1       62
 1       63
 1       64
 1       65
 1       66
 1       67
 1       68
 1       69
 1       70
 1       71
 1       72
 1       73
 1       74
 1       75
 1       76
 1       77
 1       78
 1       79
 1       80
 1       81
 1       82
 1       83
 1       84
 1       85
 1       86
 1       87
 1       88
 1       89
 1       90
 1       91
 1       92
 1       93
 1       94
 1       95
 1       96
 1       97
 1       98
 1       99
 1      100
 1      101
 1      102
 1      103
 1      104
 1      105
 1      106
 1      107
 1      108
 1      109
 1      110
 1      111
 1      112
 1      113
 1      114
 1      115
 1      116
 1      117
 1      118
 1      119
 1      120
 1      121
 1      122
 1      123
 1      124
 1      125
 1      126
 1      127
 1      128
 1      129
 1      130
 1      131
 1      132
 1      133
 1      134
 1      135
 1      136
 1      137
 1      138
 1      139
 1      140
 1      141
 1      142
 1      143
 1      144
 1      145
 1      146
 1      147
 1      148
 1      149
 1      150
 1      151
 1      152
 1      153
 1      154
 1      155
 1      156
 1      157
 1      158
 1      159
 1      160
 1      161
 1      162
 1      163
 1      164
 1      165
 1      166
 1      167
 1      168
 1      169
 1      170
 1      171
 1      172
 1      173
 1      174
 1      175
 1      176
 1      177
 1      178
 1      179
 1      180
 1      181
 1      182
 1      183
 1      184
 1      185
 1      186
 1      187
 1      188
 1      189
 1      190
 1      191
 1      192
 1      193
 1      194
 1      195
 1      196
 1      197
 1      198
 1      199
 1      200
 1      201
 1      202
 1      203
 1      204
 1      205
 1      206
 1      207
 1      208
 1      209
 1      210
 1      211
 1      212
 1      213
 1      214
 1      215
 1      216
 1      217
 1      218
 1      219
 1      220
 1      221
 1      222
 1      223
 1      224
 1      225
 1      226
 1      227
 1      228
 1      229
 1      230
 1      231
 1      232
 1      233
 1      234
 1      235
 1      236
 1      237
 1      238
 1      239
 1      240
 1      241
 1      242
 1      243
 1      244
 1      245
 1      246
 1      247
 1      248
 1      249
 1      250
 1      251
 1      252
 1      253
 1      254
 1      255
 1      256
 1      257
 1      258
 1      259
 1      260
 1      261
 1      262
 1      263
 1      264
 1      265
 1      266
 1      267
 1      268
 1      269
 1      270
 1      271
 1      272
 1      273
 1      274
 1      275
 1      276
 1      277
 1      278
 1      279
 1      280
 1      281
 1      282
 1      283
 1      284
 1      285
 1      286
 1      287
POINT_DATA      288
SCALARS hemisphere int 1
LOOKUP_TABLE default
 1
 1
 1
 1
 1
 1
 1
 1
 1
 1
 1
 1
 1
 1
 1
 1
 1
 1
 1
 1
 1
 1
 1
 1
 1
 1
 1
 1
 1
 1
 1
 1
 1
 1
 1
 1
 1
 1
 1
 1
 1
 1
 1
 1
 1
 1
 1
 1
 1
 1
 1
 1
 1
 1
 1
 1
 1
 1
 1
 1
 1
 1
 1
 1
 1
 1
 1
 1
 1
 1
 1
 1
 1
 1
 1
 1
 1
 1
 1
 1
 1
 1
 1
 1
 1
 1
 1
 1
 1
 1
 1
 1
 1
 1
 1
 1
 1
 1
 1
 1
 1
 1
 1
 1
 1
 1
 1
 1
 1
 1
 1
 1
 1
 1
 1
 1
 1
 1
 1
 1
 1
 1
 1
 1
 1
 1
 1
 1
 1
 1
 1
 1
 1
 1
 1
 1
 1
 1
 1
 1
 1
 1
 1
 1
-1
-1
-1
-1
-1
-1
-1
-1
-1
-1
-1
-1
-1
-1
-1
-1
-1
-1
-1
-1
-1
-1
-1
-1
-1
-1
-1
-1
-1
-1
-1
-1
-1
-1
-1
-1
-1
-1
-1
-1
-1
-1
-1
-1
-1
-1
-1
-1
-1
-1
-1
-1
-1
-1
-1
-1
-1
-1
-1
-1
-1
-1
-1
-1
-1
-1
-1
-1
-1
-1
-1
-1
-1
-1
-1
-1
-1
-1
-1
-1
-1
-1
-1
-1
-1
-1
-1
-1
-1
-1
-1
-1
-1
-1
-1
-1
-1
-1
-1
-1
-1
-1
-1
-1
-1
-1
-1
-1
-1
-1
-1
-1
-1
-1
-1
-1
-1
-1
-1
-1
-1
-1
-1
-1
-1
-1
-1
-1
-1
-1
-1
-1
-1
-1
-1
-1
-1
-1
-1
-1
-1
-1
-1
-1
