# vtk DataFile Version 3.0
T01 + IGRF magnetic field in GSW coordinates
ASCII
DATASET STRUCTURED_GRID
DIMENSIONS     61    21    21
POINTS    26901 float
     -50.000000     -10.000000     -10.000000
     -49.000000     -10.000000     -10.000000
     -48.000000     -10.000000     -10.000000
     -47.000000     -10.000000     -10.000000
     -46.000000     -10.000000     -10.000000
     -45.000000     -10.000000     -10.000000
     -44.000000     -10.000000     -10.000000
     -43.000000     -10.000000     -10.000000
     -42.000000     -10.000000     -10.000000
     -41.000000     -10.000000     -10.000000
     -40.000000     -10.000000     -10.000000
     -39.000000     -10.000000     -10.000000
     -38.000000     -10.000000     -10.000000
     -37.000000     -10.000000     -10.000000
     -36.000000     -10.000000     -10.000000
     -35.000000     -10.000000     -10.000000
     -34.000000     -10.000000     -10.000000
     -33.000000     -10.000000     -10.000000
     -32.000000     -10.000000     -10.000000
     -31.000000     -10.000000     -10.000000
     -30.000000     -10.000000     -10.000000
     -29.000000     -10.000000     -10.000000
     -28.000000     -10.000000     -10.000000
     -27.000000     -10.000000     -10.000000
     -26.000000     -10.000000     -10.000000
     -25.000000     -10.000000     -10.000000
     -24.000000     -10.000000     -10.000000
     -23.000000     -10.000000     -10.000000
     -22.000000     -10.000000     -10.000000
     -21.000000     -10.000000     -10.000000
     -20.000000     -10.000000     -10.000000
     -19.000000     -10.000000     -10.000000
     -18.000000     -10.000000     -10.000000
     -17.000000     -10.000000     -10.000000
     -16.000000     -10.000000     -10.000000
     -15.000000     -10.000000     -10.000000
     -14.000000     -10.000000     -10.000000
     -13.000000     -10.000000     -10.000000
     -12.000000     -10.000000     -10.000000
     -11.000000     -10.000000     -10.000000
     -10.000000     -10.000000     -10.000000
      -9.000000     -10.000000     -10.000000
      -8.000000     -10.000000     -10.000000
      -7.000000     -10.000000     -10.000000
      -6.000000     -10.000000     -10.000000
      -5.000000     -10.000000     -10.000000
      -4.000000     -10.000000     -10.000000
      -3.000000     -10.000000     -10.000000
      -2.000000     -10.000000     -10.000000
      -1.000000     -10.000000     -10.000000
       0.000000     -10.000000     -10.000000
       1.000000     -10.000000     -10.000000
       2.000000     -10.000000     -10.000000
       3.000000     -10.000000     -10.000000
       4.000000     -10.000000     -10.000000
       5.000000     -10.000000     -10.000000
       6.000000     -10.000000     -10.000000
       7.000000     -10.000000     -10.000000
       8.000000     -10.000000     -10.000000
       9.000000     -10.000000     -10.000000
      10.000000     -10.000000     -10.000000
     -50.000000      -9.000000     -10.000000
     -49.000000      -9.000000     -10.000000
     -48.000000      -9.000000     -10.000000
     -47.000000      -9.000000     -10.000000
     -46.000000      -9.000000     -10.000000
     -45.000000      -9.000000     -10.000000
     -44.000000      -9.000000     -10.000000
     -43.000000      -9.000000     -10.000000
     -42.000000      -9.000000     -10.000000
     -41.000000      -9.000000     -10.000000
     -40.000000      -9.000000     -10.000000
     -39.000000      -9.000000     -10.000000
     -38.000000      -9.000000     -10.000000
     -37.000000      -9.000000     -10.000000
     -36.000000      -9.000000     -10.000000
     -35.000000      -9.000000     -10.000000
     -34.000000      -9.000000     -10.000000
     -33.000000      -9.000000     -10.000000
     -32.000000      -9.000000     -10.000000
     -31.000000      -9.000000     -10.000000
     -30.000000      -9.000000     -10.000000
     -29.000000      -9.000000     -10.000000
     -28.000000      -9.000000     -10.000000
     -27.000000      -9.000000     -10.000000
     -26.000000      -9.000000     -10.000000
     -25.000000      -9.000000     -10.000000
     -24.000000      -9.000000     -10.000000
     -23.000000      -9.000000     -10.000000
     -22.000000      -9.000000     -10.000000
     -21.000000      -9.000000     -10.000000
     -20.000000      -9.000000     -10.000000
     -19.000000      -9.000000     -10.000000
     -18.000000      -9.000000     -10.000000
     -17.000000      -9.000000     -10.000000
     -16.000000      -9.000000     -10.000000
     -15.000000      -9.000000     -10.000000
     -14.000000      -9.000000     -10.000000
     -13.000000      -9.000000     -10.000000
     -12.000000      -9.000000     -10.000000
     -11.000000      -9.000000     -10.000000
     -10.000000      -9.000000     -10.000000
      -9.000000      -9.000000     -10.000000
      -8.000000      -9.000000     -10.000000
      -7.000000      -9.000000     -10.000000
      -6.000000      -9.000000     -10.000000
      -5.000000      -9.000000     -10.000000
      -4.000000      -9.000000     -10.000000
      -3.000000      -9.000000     -10.000000
      -2.000000      -9.000000     -10.000000
      -1.000000      -9.000000     -10.000000
       0.000000      -9.000000     -10.000000
       1.000000      -9.000000     -10.000000
       2.000000      -9.000000     -10.000000
       3.000000      -9.000000     -10.000000
       4.000000      -9.000000     -10.000000
       5.000000      -9.000000     -10.000000
       6.000000      -9.000000     -10.000000
       7.000000      -9.000000     -10.000000
       8.000000      -9.000000     -10.000000
       9.000000      -9.000000     -10.000000
      10.000000      -9.000000     -10.000000
     -50.000000      -8.000000     -10.000000
     -49.000000      -8.000000     -10.000000
     -48.000000      -8.000000     -10.000000
     -47.000000      -8.000000     -10.000000
     -46.000000      -8.000000     -10.000000
     -45.000000      -8.000000     -10.000000
     -44.000000      -8.000000     -10.000000
     -43.000000      -8.000000     -10.000000
     -42.000000      -8.000000     -10.000000
     -41.000000      -8.000000     -10.000000
     -40.000000      -8.000000     -10.000000
     -39.000000      -8.000000     -10.000000
     -38.000000      -8.000000     -10.000000
     -37.000000      -8.000000     -10.000000
     -36.000000      -8.000000     -10.000000
     -35.000000      -8.000000     -10.000000
     -34.000000      -8.000000     -10.000000
     -33.000000      -8.000000     -10.000000
     -32.000000      -8.000000     -10.000000
     -31.000000      -8.000000     -10.000000
     -30.000000      -8.000000     -10.000000
     -29.000000      -8.000000     -10.000000
     -28.000000      -8.000000     -10.000000
     -27.000000      -8.000000     -10.000000
     -26.000000      -8.000000     -10.000000
     -25.000000      -8.000000     -10.000000
     -24.000000      -8.000000     -10.000000
     -23.000000      -8.000000     -10.000000
     -22.000000      -8.000000     -10.000000
     -21.000000      -8.000000     -10.000000
     -20.000000      -8.000000     -10.000000
     -19.000000      -8.000000     -10.000000
     -18.000000      -8.000000     -10.000000
     -17.000000      -8.000000     -10.000000
     -16.000000      -8.000000     -10.000000
     -15.000000      -8.000000     -10.000000
     -14.000000      -8.000000     -10.000000
     -13.000000      -8.000000     -10.000000
     -12.000000      -8.000000     -10.000000
     -11.000000      -8.000000     -10.000000
     -10.000000      -8.000000     -10.000000
      -9.000000      -8.000000     -10.000000
      -8.000000      -8.000000     -10.000000
      -7.000000      -8.000000     -10.000000
      -6.000000      -8.000000     -10.000000
      -5.000000      -8.000000     -10.000000
      -4.000000      -8.000000     -10.000000
      -3.000000      -8.000000     -10.000000
      -2.000000      -8.000000     -10.000000
      -1.000000      -8.000000     -10.000000
       0.000000      -8.000000     -10.000000
       1.000000      -8.000000     -10.000000
       2.000000      -8.000000     -10.000000
       3.000000      -8.000000     -10.000000
       4.000000      -8.000000     -10.000000
       5.000000      -8.000000     -10.000000
       6.000000      -8.000000     -10.000000
       7.000000      -8.000000     -10.000000
       8.000000      -8.000000     -10.000000
       9.000000      -8.000000     -10.000000
      10.000000      -8.000000     -10.000000
     -50.000000      -7.000000     -10.000000
     -49.000000      -7.000000     -10.000000
     -48.000000      -7.000000     -10.000000
     -47.000000      -7.000000     -10.000000
     -46.000000      -7.000000     -10.000000
     -45.000000      -7.000000     -10.000000
     -44.000000      -7.000000     -10.000000
     -43.000000      -7.000000     -10.000000
     -42.000000      -7.000000     -10.000000
     -41.000000      -7.000000     -10.000000
     -40.000000      -7.000000     -10.000000
     -39.000000      -7.000000     -10.000000
     -38.000000      -7.000000     -10.000000
     -37.000000      -7.000000     -10.000000
     -36.000000      -7.000000     -10.000000
     -35.000000      -7.000000     -10.000000
     -34.000000      -7.000000     -10.000000
     -33.000000      -7.000000     -10.000000
     -32.000000      -7.000000     -10.000000
     -31.000000      -7.000000     -10.000000
     -30.000000      -7.000000     -10.000000
     -29.000000      -7.000000     -10.000000
     -28.000000      -7.000000     -10.000000
     -27.000000      -7.000000     -10.000000
     -26.000000      -7.000000     -10.000000
     -25.000000      -7.000000     -10.000000
[...]
POINT_DATA    26901
VECTORS B_total float
  -8.6799717E+00  -8.6148876E-01   3.3251433E+00
  -8.9879303E+00  -8.8637686E-01   3.4080153E+00
  -9.3057270E+00  -9.1308361E-01   3.4914427E+00
  -9.6337109E+00  -9.4183135E-01   3.5752425E+00
  -9.9722795E+00  -9.7287112E-01   3.6592140E+00
  -1.0321879E+01  -1.0064859E+00   3.7431362E+00
  -1.0683020E+01  -1.0429952E+00   3.8267624E+00
  -1.1056273E+01  -1.0827584E+00   3.9098196E+00
  -1.1442292E+01  -1.1261814E+00   3.9919987E+00
  -1.1841814E+01  -1.1737208E+00   4.0729480E+00
  -1.2255667E+01  -1.2258917E+00   4.1522670E+00
  -1.2684777E+01  -1.2832738E+00   4.2294912E+00
  -1.3130183E+01  -1.3465198E+00   4.3040829E+00
  -1.3593023E+01  -1.4163643E+00   4.3754172E+00
  -1.4074551E+01  -1.4936326E+00   4.4427629E+00
  -1.4576123E+01  -1.5792514E+00   4.5052700E+00
  -1.5099197E+01  -1.6742604E+00   4.5619493E+00
  -1.5645318E+01  -1.7798227E+00   4.6116567E+00
  -1.6216097E+01  -1.8972396E+00   4.6530776E+00
  -1.6813196E+01  -2.0279622E+00   4.6847148E+00
  -1.7438299E+01  -2.1736071E+00   4.7048783E+00
  -1.8093073E+01  -2.3359745E+00   4.7116823E+00
  -1.8779156E+01  -2.5170648E+00   4.7030449E+00
  -1.9498104E+01  -2.7191038E+00   4.6766944E+00
  -2.0251377E+01  -2.9445703E+00   4.6301761E+00
  -2.1040298E+01  -3.1962314E+00   4.5608578E+00
  -2.1866020E+01  -3.4771788E+00   4.4659243E+00
  -2.2729479E+01  -3.7908890E+00   4.3423843E+00
  -2.3631321E+01  -4.1412735E+00   4.1870499E+00
  -2.4571804E+01  -4.5327439E+00   3.9965281E+00
  -2.5550638E+01  -4.9702768E+00   3.7672307E+00
  -2.6566788E+01  -5.4594760E+00   3.4954157E+00
  -2.7618244E+01  -6.0066280E+00   3.1772981E+00
  -2.8701794E+01  -6.6187525E+00   2.8092308E+00
  -2.9812815E+01  -7.3036418E+00   2.3879473E+00
  -3.0945137E+01  -8.0698900E+00   1.9108429E+00
  -3.2090988E+01  -8.9268885E+00   1.3762071E+00
  -3.3240902E+01  -9.8847361E+00   7.8334475E-01
  -3.4383579E+01  -1.0953986E+01   1.3253760E-01
  -3.5505421E+01  -1.2145052E+01  -5.7513201E-01
  -3.6589680E+01  -1.3467070E+01  -1.3379220E+00
  -3.7615227E+01  -1.4925970E+01  -2.1531975E+00
  -3.8555241E+01  -1.6521555E+01  -3.0163879E+00
  -3.9376774E+01  -1.8243683E+01  -3.9187512E+00
  -4.0042233E+01  -2.0067991E+01  -4.8440547E+00
  -4.0514072E+01  -2.1952213E+01  -5.7647295E+00
  -4.0763187E+01  -2.3834658E+01  -6.6389904E+00
  -4.0780102E+01  -2.5636608E+01  -7.4104867E+00
  -4.0586426E+01  -2.7269791E+01  -8.0119143E+00
  -4.0242783E+01  -2.8648844E+01  -8.3728352E+00
  -3.9849407E+01  -2.9706676E+01  -8.4303417E+00
  -2.0217812E+01  -1.5686198E+01  -3.9471431E+00
  -7.5731151E-02  -3.5787773E-01   4.1094446E-01
  -6.6555142E-02  -3.7453747E-01   4.0094423E-01
  -5.2798271E-02  -3.8760853E-01   3.9445066E-01
  -3.6429644E-02  -3.9613628E-01   3.9199972E-01
  -1.9471645E-02  -3.9993858E-01   3.9348936E-01
  -3.5958290E-03  -3.9948368E-01   3.9830542E-01
   1.0072231E-02  -3.9563847E-01   4.0557194E-01
   2.0967007E-02  -3.8938713E-01   4.1435814E-01
   2.8985023E-02  -3.8167763E-01   4.2382991E-01
  -8.7428122E+00  -8.1928110E-01   3.3610954E+00
  -9.0541801E+00  -8.4278750E-01   3.4437814E+00
  -9.3756657E+00  -8.6801660E-01   3.5269017E+00
  -9.7076521E+00  -8.9517379E-01   3.6102648E+00
  -1.0050570E+01  -9.2449087E-01   3.6936622E+00
  -1.0404903E+01  -9.5622945E-01   3.7768638E+00
  -1.0771207E+01  -9.9068433E-01   3.8596148E+00
  -1.1150102E+01  -1.0281881E+00   3.9416313E+00
  -1.1542297E+01  -1.0691162E+00   4.0225916E+00
  -1.1948595E+01  -1.1138922E+00   4.1021314E+00
  -1.2369896E+01  -1.1629939E+00   4.1798320E+00
  -1.2807212E+01  -1.2169610E+00   4.2552075E+00
  -1.3261670E+01  -1.2764026E+00   4.3276949E+00
  -1.3734520E+01  -1.3420055E+00   4.3966336E+00
  -1.4227132E+01  -1.4145448E+00   4.4612517E+00
  -1.4740999E+01  -1.4948938E+00   4.5206451E+00
  -1.5277729E+01  -1.5840352E+00   4.5737596E+00
  -1.5839033E+01  -1.6830747E+00   4.6193676E+00
  -1.6426710E+01  -1.7932541E+00   4.6560569E+00
  -1.7042625E+01  -1.9159659E+00   4.6822085E+00
  -1.7688684E+01  -2.0527709E+00   4.6959906E+00
  -1.8366814E+01  -2.2054167E+00   4.6953502E+00
  -1.9078913E+01  -2.3758614E+00   4.6780100E+00
  -1.9826851E+01  -2.5662994E+00   4.6414723E+00
  -2.0612425E+01  -2.7791972E+00   4.5830245E+00
  -2.1437347E+01  -3.0173352E+00   4.4997363E+00
  -2.2303202E+01  -3.2838535E+00   4.3884459E+00
  -2.3211430E+01  -3.5823267E+00   4.2457576E+00
  -2.4163256E+01  -3.9168303E+00   4.0679989E+00
  -2.5159578E+01  -4.2920289E+00   3.8511951E+00
  -2.6200827E+01  -4.7132688E+00   3.5910559E+00
  -2.7286758E+01  -5.1866784E+00   3.2829943E+00
  -2.8416189E+01  -5.7192721E+00   2.9222188E+00
  -2.9586763E+01  -6.3190646E+00   2.5038939E+00
  -3.0794731E+01  -6.9951921E+00   2.0233760E+00
  -3.2034767E+01  -7.7580366E+00   1.4764456E+00
  -3.3299854E+01  -8.6193466E+00   8.5948884E-01
  -3.4581123E+01  -9.5922775E+00   1.6951871E-01
  -3.5867409E+01  -1.0691248E+01  -5.9602273E-01
  -3.7144405E+01  -1.1931398E+01  -1.4395493E+00
  -3.8393040E+01  -1.3327340E+01  -2.3635492E+00
  -3.9587200E+01  -1.4890842E+01  -3.3700938E+00
  -4.0691254E+01  -1.6627104E+01  -4.4590693E+00
  -4.1658485E+01  -1.8529528E+01  -5.6245198E+00
  -4.2432358E+01  -2.0573492E+01  -6.8491416E+00
  -4.2952522E+01  -2.2710403E+01  -8.0978851E+00
  -4.3166592E+01  -2.4864231E+01  -9.3128014E+00
  -4.3046913E+01  -2.6933208E+01  -1.0411906E+01
  -4.2608612E+01  -2.8799053E+01  -1.1294511E+01
  -4.1922935E+01  -3.0343788E+01  -1.1853766E+01
  -4.1119549E+01  -3.1471554E+01  -1.1994215E+01
  -4.0374119E+01  -3.2129478E+01  -1.1649571E+01
  -1.4740035E+01  -1.2117165E+01  -3.7329335E+00
  -8.3910704E-02  -3.7205887E-01   3.6591625E-01
  -6.5323830E-02  -3.8927364E-01   3.5731697E-01
  -4.3501377E-02  -4.0054321E-01   3.5481930E-01
  -2.1349430E-02  -4.0571404E-01   3.5806084E-01
  -1.1377335E-03  -4.0551281E-01   3.6593437E-01
   1.5715122E-02  -4.0113640E-01   3.7701988E-01
   2.8646469E-02  -3.9393902E-01   3.8987947E-01
   3.7709713E-02  -3.8514519E-01   4.0331602E-01
  -8.8082743E+00  -7.7474564E-01   3.3984241E+00
  -9.1230183E+00  -7.9652703E-01   3.4809768E+00
  -9.4481430E+00  -8.1990355E-01   3.5638444E+00
  -9.7840595E+00  -8.4506190E-01   3.6468282E+00
  -1.0131227E+01  -8.7221235E-01   3.7297106E+00
  -1.0490169E+01  -9.0159225E-01   3.8122528E+00
  -1.0861476E+01  -9.3346930E-01   3.8941913E+00
  -1.1245819E+01  -9.6814567E-01   3.9752297E+00
  -1.1643959E+01  -1.0059627E+00   4.0550361E+00
  -1.2056758E+01  -1.0473065E+00   4.1332302E+00
  -1.2485184E+01  -1.0926129E+00   4.2093759E+00
  -1.2930327E+01  -1.1423751E+00   4.2829657E+00
  -1.3393404E+01  -1.1971515E+00   4.3534079E+00
  -1.3875764E+01  -1.2575732E+00   4.4200091E+00
  -1.4378891E+01  -1.3243544E+00   4.4819536E+00
  -1.4904408E+01  -1.3983023E+00   4.5382824E+00
  -1.5454064E+01  -1.4803292E+00   4.5878739E+00
  -1.6029736E+01  -1.5714645E+00   4.6294188E+00
  -1.6633398E+01  -1.6728704E+00   4.6614027E+00
  -1.7267120E+01  -1.7858559E+00   4.6820850E+00
  -1.7933035E+01  -1.9118958E+00   4.6894889E+00
  -1.8633308E+01  -2.0526514E+00   4.6813903E+00
  -1.9370127E+01  -2.2099960E+00   4.6553116E+00
  -2.0145668E+01  -2.3860445E+00   4.6085258E+00
  -2.0962090E+01  -2.5831947E+00   4.5380511E+00
  -2.1821501E+01  -2.8041666E+00   4.4406428E+00
  -2.2725973E+01  -3.0520751E+00   4.3127813E+00
  -2.3677496E+01  -3.3304961E+00   4.1506352E+00
  -2.4677935E+01  -3.6435595E+00   3.9500134E+00
  -2.5728933E+01  -3.9960523E+00   3.7063079E+00
  -2.6831779E+01  -4.3935432E+00   3.4144533E+00
  -2.7987186E+01  -4.8425188E+00   3.0689182E+00
  -2.9195051E+01  -5.3505383E+00   2.6637616E+00
  -3.0454203E+01  -5.9264197E+00   2.1927688E+00
  -3.1762175E+01  -6.5804524E+00   1.6496282E+00
  -3.3115055E+01  -7.3246517E+00   1.0281084E+00
  -3.4507313E+01  -8.1730261E+00   3.2210588E-01
  -3.5931526E+01  -9.1418095E+00  -4.7451019E-01
  -3.7377689E+01  -1.0249500E+01  -1.3683385E+00
  -3.8831783E+01  -1.1516477E+01  -2.3670068E+00
  -4.0273258E+01  -1.2963772E+01  -3.4794936E+00
  -4.1671295E+01  -1.4610477E+01  -4.7154531E+00
  -4.2980530E+01  -1.6469242E+01  -6.0825272E+00
  -4.4137756E+01  -1.8539536E+01  -7.5807452E+00
  -4.5062313E+01  -2.0799059E+01  -9.1938934E+00
  -4.5663162E+01  -2.3194748E+01  -1.0879146E+01
  -4.5854961E+01  -2.5636375E+01  -1.2558128E+01
  -4.5582306E+01  -2.7996649E+01  -1.4113894E+01
  -4.4847580E+01  -3.0121899E+01  -1.5398237E+01
  -4.3732880E+01  -3.1854446E+01  -1.6251314E+01
  -4.2405571E+01  -3.3063034E+01  -1.6530176E+01
  -4.1100708E+01  -3.3672913E+01  -1.6138235E+01
  -4.0082695E+01  -3.3684509E+01  -1.5044626E+01
  -1.0683799E-01  -3.5989952E-01   3.2452869E-01
  -8.1998348E-02  -3.8284302E-01   3.1270123E-01
  -5.3124905E-02  -3.9815331E-01   3.0993652E-01
  -2.4373055E-02  -4.0569019E-01   3.1543350E-01
   1.2083054E-03  -4.0650177E-01   3.2732487E-01
   2.1892548E-02  -4.0223408E-01   3.4335709E-01
   3.7158012E-02  -3.9463234E-01   3.6141253E-01
   4.7323227E-02  -3.8523674E-01   3.7980175E-01
  -8.8739223E+00  -7.2727376E-01   3.4360895E+00
  -9.1919136E+00  -7.4700856E-01   3.5185797E+00
  -9.5205259E+00  -7.6818466E-01   3.6012735E+00
  -9.8601923E+00  -7.9096776E-01   3.6839645E+00
  -1.0211405E+01  -8.1554508E-01   3.7664268E+00
  -1.0574716E+01  -8.4212744E-01   3.8484139E+00
  -1.0950753E+01  -8.7095314E-01   3.9296525E+00
  -1.1340232E+01  -9.0229124E-01   4.0098362E+00
  -1.1743958E+01  -9.3644607E-01   4.0886211E+00
  -1.2162850E+01  -9.7376180E-01   4.1656127E+00
  -1.2597939E+01  -1.0146285E+00   4.2403574E+00
  -1.3050385E+01  -1.0594878E+00   4.3123269E+00
  -1.3521488E+01  -1.1088406E+00   4.3809032E+00
  -1.4012689E+01  -1.1632547E+00   4.4453583E+00
  -1.4525578E+01  -1.2233740E+00   4.5048351E+00
  -1.5061900E+01  -1.2899289E+00   4.5583224E+00
  -1.5623538E+01  -1.3637470E+00   4.6046333E+00
  -1.6212521E+01  -1.4457656E+00   4.6423783E+00
  -1.6830994E+01  -1.5370467E+00   4.6699438E+00
  -1.7481218E+01  -1.6387917E+00   4.6854730E+00
  -1.8165541E+01  -1.7523607E+00   4.6868463E+00
  -1.8886372E+01  -1.8792940E+00   4.6716728E+00
  -1.9646172E+01  -2.0213380E+00   4.6372800E+00
  -2.0447428E+01  -2.1804771E+00   4.5807118E+00
  -2.1292660E+01  -2.3589787E+00   4.4987230E+00
  -2.2184395E+01  -2.5594349E+00   4.3877540E+00
  -2.3125196E+01  -2.7848403E+00   4.2439203E+00
  -2.4117638E+01  -3.0386686E+00   4.0629478E+00
  -2.5164272E+01  -3.3249717E+00   3.8401065E+00
  -2.6267565E+01  -3.6485052E+00   3.5701289E+00
  -2.7429756E+01  -4.0148711E+00   3.2471299E+00
  -2.8652668E+01  -4.4306889E+00   2.8645606E+00
  -2.9937487E+01  -4.9038024E+00   2.4152279E+00
  -3.1284523E+01  -5.4435301E+00   1.8913679E+00
  -3.2693031E+01  -6.0609770E+00   1.2847557E+00
  -3.4161076E+01  -6.7694225E+00   5.8675575E-01
  -3.5685379E+01  -7.5847669E+00  -2.1181440E-01
  -3.7260960E+01  -8.5259809E+00  -1.1211348E+00
  -3.8880165E+01  -9.6154108E+00  -2.1531973E+00
  -4.0530663E+01  -1.0878670E+01  -3.3227854E+00
  -4.2191704E+01  -1.2343563E+01  -4.6481228E+00
  -4.3828648E+01  -1.4037467E+01  -6.1500649E+00
  -4.5386177E+01  -1.5982183E+01  -7.8483992E+00
  -4.6782372E+01  -1.8185820E+01  -9.7537994E+00
  -4.7907238E+01  -2.0631554E+01  -1.1854897E+01
  -4.8630413E+01  -2.3265043E+01  -1.4102087E+01
  -4.8821880E+01  -2.5983841E+01  -1.6392456E+01
  -4.8386238E+01  -2.8634785E+01  -1.8562950E+01
  -4.7304298E+01  -3.1025444E+01  -2.0399605E+01
  -4.5668217E+01  -3.2952587E+01  -2.1666992E+01
  -4.3692940E+01  -3.4243690E+01  -2.2153904E+01
  -4.1691856E+01  -3.4798973E+01  -2.1721287E+01
  -4.0019604E+01  -3.4617691E+01  -2.0333717E+01
  -3.9001225E+01  -3.3797592E+01  -1.8060928E+01
  -1.0453653E-01  -3.6411667E-01   2.6255608E-01
  -6.6721916E-02  -3.8528633E-01   2.5875187E-01
  -2.9664993E-02  -3.9673710E-01   2.6669788E-01
   2.5186539E-03  -3.9986038E-01   2.8339672E-01
   2.7798653E-02  -3.9680958E-01   3.0541563E-01
   4.5787811E-02  -3.8979340E-01   3.2970047E-01
   5.7179451E-02  -3.8066673E-01   3.5395002E-01
  -8.9371748E+00  -6.7647839E-01   3.4727657E+00
  -9.2581902E+00  -6.9387716E-01   3.5552669E+00
  -9.5900393E+00  -7.1254146E-01   3.6378722E+00
  -9.9331789E+00  -7.3261523E-01   3.7203684E+00
  -1.0288124E+01  -7.5426066E-01   3.8025224E+00
  -1.0655457E+01  -7.7766073E-01   3.8840799E+00
  -1.1035839E+01  -8.0302227E-01   3.9647593E+00
  -1.1430021E+01  -8.3057898E-01   4.0442457E+00
  -1.1838855E+01  -8.6059558E-01   4.1221824E+00
  -1.2263303E+01  -8.9337176E-01   4.1981635E+00
  -1.2704455E+01  -9.2924744E-01   4.2717195E+00
  -1.3163538E+01  -9.6860844E-01   4.3423023E+00
  -1.3641923E+01  -1.0118928E+00   4.4092689E+00
  -1.4141135E+01  -1.0595984E+00   4.4718609E+00
  -1.4662863E+01  -1.1122909E+00   4.5291824E+00
  -1.5208955E+01  -1.1706134E+00   4.5801749E+00
  -1.5781420E+01  -1.2352971E+00   4.6235895E+00
  -1.6382425E+01  -1.3071722E+00   4.6579638E+00
  -1.7014278E+01  -1.3871824E+00   4.6815929E+00
  -1.7679411E+01  -1.4763993E+00   4.6925097E+00
  -1.8380379E+01  -1.5760415E+00   4.6884651E+00
  -1.9119812E+01  -1.6874943E+00   4.6669097E+00
  -1.9900436E+01  -1.8123375E+00   4.6249900E+00
  -2.0725040E+01  -1.9523766E+00   4.5595331E+00
  -2.1596489E+01  -2.1096876E+00   4.4670410E+00
  -2.2517727E+01  -2.2866592E+00   4.3436584E+00
  -2.3491804E+01  -2.4860756E+00   4.1851411E+00
  -2.4521885E+01  -2.7111926E+00   3.9867849E+00
  -2.5611231E+01  -2.9658451E+00   3.7433295E+00
  -2.6763155E+01  -3.2545791E+00   3.4488430E+00
  -2.7980909E+01  -3.5828128E+00   3.0966127E+00
  -2.9267529E+01  -3.9570296E+00   2.6790452E+00
  -3.0625633E+01  -4.3850236E+00   2.1876371E+00
  -3.2057259E+01  -4.8762093E+00   1.6129777E+00
  -3.3563732E+01  -5.4420156E+00   9.4474411E-01
  -3.5145607E+01  -6.0963964E+00   1.7158413E-01
  -3.6802593E+01  -6.8564515E+00  -7.1928287E-01
  -3.8533119E+01  -7.7431016E+00  -1.7429309E+00
  -4.0333195E+01  -8.7817135E+00  -2.9180441E+00
  -4.2193687E+01  -1.0002314E+01  -4.2685795E+00
  -4.4095402E+01  -1.1438893E+01  -5.8249292E+00
  -4.6001366E+01  -1.3126940E+01  -7.6232247E+00
  -4.7846996E+01  -1.5098095E+01  -9.7006664E+00
  -4.9530411E+01  -1.7370872E+01  -1.2084564E+01
  -5.0907963E+01  -1.9937115E+01  -1.4773958E+01
  -5.1801346E+01  -2.2745365E+01  -1.7715313E+01
  -5.2023212E+01  -2.5685427E+01  -2.0778141E+01
  -5.1423714E+01  -2.8581699E+01  -2.3741392E+01
  -4.9950634E+01  -3.1204056E+01  -2.6303551E+01
  -4.7703930E+01  -3.3302406E+01  -2.8125401E+01
  -4.4956829E+01  -3.4660511E+01  -2.8900585E+01
  -4.2123089E+01  -3.5152336E+01  -2.8431900E+01
  -3.9673393E+01  -3.4777618E+01  -2.6681210E+01
  -3.8031349E+01  -3.3660099E+01  -2.3769966E+01
  -2.3538586E+01  -2.0177494E+01  -1.2408196E+01
  -8.6207390E-02  -3.5824394E-01   2.0490456E-01
  -3.8937569E-02  -3.7565708E-01   2.1476364E-01
   1.3170242E-03  -3.8295269E-01   2.3650932E-01
   3.2135010E-02  -3.8279629E-01   2.6510429E-01
   5.3380013E-02  -3.7783527E-01   2.9629707E-01
   6.6268921E-02  -3.7027168E-01   3.2699966E-01
  -8.9955015E+00  -6.2223005E-01   3.5070004E+00
  -9.3192291E+00  -6.3704145E-01   3.5895753E+00
  -9.6539745E+00  -6.5292573E-01   3.6721690E+00
  -1.0000214E+01  -6.7000377E-01   3.7545624E+00
  -1.0358484E+01  -6.8841183E-01   3.8365166E+00
  -1.0729393E+01  -7.0830375E-01   3.9177709E+00
  -1.1113628E+01  -7.2985339E-01   3.9980364E+00
  -1.1511975E+01  -7.5325751E-01   4.0769892E+00
  -1.1925323E+01  -7.7873892E-01   4.1542659E+00
  -1.2354674E+01  -8.0655038E-01   4.2294464E+00
  -1.2801171E+01  -8.3697897E-01   4.3020487E+00
  -1.3266093E+01  -8.7035072E-01   4.3715076E+00
  -1.3750877E+01  -9.0703648E-01   4.4371591E+00
  -1.4257123E+01  -9.4745857E-01   4.4982171E+00
  -1.4786601E+01  -9.9209768E-01   4.5537524E+00
  -1.5341256E+01  -1.0415014E+00   4.6026626E+00
  -1.5923207E+01  -1.0962936E+00   4.6436477E+00
  -1.6534742E+01  -1.1571846E+00   4.6751781E+00
  -1.7178308E+01  -1.2249842E+00   4.6954694E+00
  -1.7856503E+01  -1.3006150E+00   4.7024574E+00
  -1.8572052E+01  -1.3851289E+00   4.6937752E+00
  -1.9327803E+01  -1.4797276E+00   4.6667361E+00
  -2.0126711E+01  -1.5857869E+00   4.6183214E+00
  -2.0971846E+01  -1.7048870E+00   4.5451651E+00
  -2.1866402E+01  -1.8388556E+00   4.4435396E+00
  -2.2813707E+01  -1.9898076E+00   4.3093162E+00
  -2.3817286E+01  -2.1602254E+00   4.1379223E+00
  -2.4880861E+01  -2.3530333E+00   3.9242506E+00
  -2.6008385E+01  -2.5717046E+00   3.6625400E+00
  -2.7204010E+01  -2.8203924E+00   3.3462300E+00
  -2.8472000E+01  -3.1040950E+00   2.9678037E+00
  -2.9816628E+01  -3.4288621E+00   2.5186572E+00
  -3.1242025E+01  -3.8020558E+00   1.9889872E+00
  -3.2752075E+01  -4.2326956E+00   1.3677133E+00
  -3.4350403E+01  -4.7319112E+00   6.4234316E-01
  -3.6040428E+01  -5.3135362E+00  -2.0136333E-01
  -3.7825382E+01  -5.9948568E+00  -1.1801362E+00
  -3.9707939E+01  -6.7974930E+00  -2.3145390E+00
  -4.1688877E+01  -7.7482872E+00  -3.6310153E+00
  -4.3763817E+01  -8.8799095E+00  -5.1643686E+00
  -4.5916943E+01  -1.0230612E+01  -6.9598017E+00
  -4.8110950E+01  -1.1842207E+01  -9.0726252E+00
  -5.0273548E+01  -1.3754927E+01  -1.1562819E+01
  -5.2283173E+01  -1.5997718E+01  -1.4480981E+01
  -5.3959858E+01  -1.8572990E+01  -1.7843500E+01
  -5.5070503E+01  -2.1436653E+01  -2.1597767E+01
  -5.5358788E+01  -2.4477818E+01  -2.5584927E+01
  -5.4605530E+01  -2.7507071E+01  -2.9515270E+01
  -5.2712612E+01  -3.0265478E+01  -3.2977280E+01
  -4.9783669E+01  -3.2463474E+01  -3.5496685E+01
  -4.6160072E+01  -3.3846291E+01  -3.6641289E+01
  -4.2378384E+01  -3.4264824E+01  -3.6137741E+01
  -3.9051689E+01  -3.3720795E+01  -3.3948143E+01
  -3.6721375E+01  -3.2363331E+01  -3.0268063E+01
  -3.5743019E+01  -3.0440109E+01  -2.5449562E+01
  -1.1390209E-01  -3.1445694E-01   1.5491295E-01
  -5.4340363E-02  -3.4018421E-01   1.6479111E-01
  -4.4059753E-03  -3.5390282E-01   1.9073963E-01
   3.3095360E-02  -3.5871410E-01   2.2562885E-01
   5.8352470E-02  -3.5768509E-01   2.6365948E-01
   7.3243141E-02  -3.5331059E-01   3.0081081E-01
  -9.0465937E+00  -5.6465763E-01   3.5373650E+00
  -9.3726435E+00  -5.7667172E-01   3.6200538E+00
  -9.7098646E+00  -5.8955330E-01   3.7026923E+00
  -1.0058749E+01  -6.0339928E-01   3.7850561E+00
  -1.0419853E+01  -6.1831921E-01   3.8669021E+00
  -1.0793804E+01  -6.3443679E-01   3.9479640E+00
  -1.1181314E+01  -6.5189195E-01   4.0279465E+00
  -1.1583194E+01  -6.7084301E-01   4.1065202E+00
  -1.2000362E+01  -6.9146955E-01   4.1833124E+00
  -1.2433865E+01  -7.1397531E-01   4.2578959E+00
  -1.2884877E+01  -7.3859203E-01   4.3297758E+00
  -1.3354730E+01  -7.6558322E-01   4.3983731E+00
  -1.3844910E+01  -7.9524910E-01   4.4630060E+00
  -1.4357081E+01  -8.2793164E-01   4.5228662E+00
  -1.4893085E+01  -8.6402112E-01   4.5769963E+00
  -1.5454947E+01  -9.0396279E-01   4.6242580E+00
  -1.6044876E+01  -9.4826478E-01   4.6633067E+00
  -1.6665266E+01  -9.9750680E-01   4.6925578E+00
  -1.7318682E+01  -1.0523515E+00   4.7101598E+00
  -1.8007860E+01  -1.1135556E+00   4.7139668E+00
  -1.8735678E+01  -1.1819844E+00   4.7015128E+00
  -1.9505165E+01  -1.2586298E+00   4.6699944E+00
  -2.0319485E+01  -1.3446316E+00   4.6162519E+00
  -2.1181948E+01  -1.4413041E+00   4.5367546E+00
  -2.2096041E+01  -1.5501753E+00   4.4275775E+00
  -2.3065435E+01  -1.6730212E+00   4.2843552E+00
  -2.4094078E+01  -1.8119392E+00   4.1022272E+00
  -2.5186207E+01  -1.9694148E+00   3.8757298E+00
  -2.6346407E+01  -2.1484203E+00   3.5986564E+00
  -2.7579603E+01  -2.3525372E+00   3.2638793E+00
  -2.8891016E+01  -2.5861094E+00   2.8631568E+00
  -3.0286097E+01  -2.8544443E+00   2.3869500E+00
  -3.1770445E+01  -3.1640689E+00   1.8242464E+00