# vtk DataFile Version 3.0
T01 + IGRF magnetic field in GSW coordinates
ASCII
DATASET STRUCTURED_GRID
DIMENSIONS     61    21    21
POINTS    26901 float
     -50.000000     -10.000000     -10.000000
     -49.000000     -10.000000     -10.000000
     -48.000000     -10.000000     -10.000000
     -47.000000     -10.000000     -10.000000
     -46.000000     -10.000000     -10.000000
     -45.000000     -10.000000     -10.000000
     -44.000000     -10.000000     -10.000000
     -43.000000     -10.000000     -10.000000
     -42.000000     -10.000000     -10.000000
     -41.000000     -10.000000     -10.000000
     -40.000000     -10.000000     -10.000000
     -39.000000     -10.000000     -10.000000
     -38.000000     -10.000000     -10.000000
     -37.000000     -10.000000     -10.000000
     -36.000000     -10.000000     -10.000000
     -35.000000     -10.000000     -10.000000
     -34.000000     -10.000000     -10.000000
     -33.000000     -10.000000     -10.000000
     -32.000000     -10.000000     -10.000000
     -31.000000     -10.000000     -10.000000
     -30.000000     -10.000000     -10.000000
     -29.000000     -10.000000     -10.000000
     -28.000000     -10.000000     -10.000000
     -27.000000     -10.000000     -10.000000
     -26.000000     -10.000000     -10.000000
     -25.000000     -10.000000     -10.000000
     -24.000000     -10.000000     -10.000000
     -23.000000     -10.000000     -10.000000
     -22.000000     -10.000000     -10.000000
     -21.000000     -10.000000     -10.000000
     -20.000000     -10.000000     -10.000000
     -19.000000     -10.000000     -10.000000
     -18.000000     -10.000000     -10.000000
     -17.000000     -10.000000     -10.000000
     -16.000000     -10.000000     -10.000000
     -15.000000     -10.000000     -10.000000
     -14.000000     -10.000000     -10.000000
     -13.000000     -10.000000     -10.000000
     -12.000000     -10.000000     -10.000000
     -11.000000     -10.000000     -10.000000
     -10.000000     -10.000000     -10.000000
      -9.000000     -10.000000     -10.000000
      -8.000000     -10.000000     -10.000000
      -7.000000     -10.000000     -10.000000
      -6.000000     -10.000000     -10.000000
      -5.000000     -10.000000     -10.000000
      -4.000000     -10.000000     -10.000000
      -3.000000     -10.000000     -10.000000
      -2.000000     -10.000000     -10.000000
      -1.000000     -10.000000     -10.000000
       0.000000     -10.000000     -10.000000
       1.000000     -10.000000     -10.000000
       2.000000     -10.000000     -10.000000
       3.000000     -10.000000     -10.000000
       4.000000     -10.000000     -10.000000
       5.000000     -10.000000     -10.000000
       6.000000     -10.000000     -10.000000
       7.000000     -10.000000     -10.000000
       8.000000     -10.000000     -10.000000
       9.000000     -10.000000     -10.000000
      10.000000     -10.000000     -10.000000
     -50.000000      -9.000000     -10.000000
     -49.000000      -9.000000     -10.000000
     -48.000000      -9.000000     -10.000000
     -47.000000      -9.000000     -10.000000
     -46.000000      -9.000000     -10.000000
     -45.000000      -9.000000     -10.000000
     -44.000000      -9.000000     -10.000000
     -43.000000      -9.000000     -10.000000
     -42.000000      -9.000000     -10.000000
     -41.000000      -9.000000     -10.000000
     -40.000000      -9.000000     -10.000000
     -39.000000      -9.000000     -10.000000
     -38.000000      -9.000000     -10.000000
     -37.000000      -9.000000     -10.000000
     -36.000000      -9.000000     -10.000000
     -35.000000      -9.000000     -10.000000
     -34.000000      -9.000000     -10.000000
     -33.000000      -9.000000     -10.000000
     -32.000000      -9.000000     -10.000000
     -31.000000      -9.000000     -10.000000
     -30.000000      -9.000000     -10.000000
     -29.000000      -9.000000     -10.000000
     -28.000000      -9.000000     -10.000000
     -27.000000      -9.000000     -10.000000
     -26.000000      -9.000000     -10.000000
     -25.000000      -9.000000     -10.000000
     -24.000000      -9.000000     -10.000000
     -23.000000      -9.000000     -10.000000
     -22.000000      -9.000000     -10.000000
     -21.000000      -9.000000     -10.000000
     -20.000000      -9.000000     -10.000000
     -19.000000      -9.000000     -10.000000
     -18.000000      -9.000000     -10.000000
     -17.000000      -9.000000     -10.000000
     -16.000000      -9.000000     -10.000000
     -15.000000      -9.000000     -10.000000
     -14.000000      -9.000000     -10.000000
     -13.000000      -9.000000     -10.000000
     -12.000000      -9.000000     -10.000000
     -11.000000      -9.000000     -10.000000
     -10.000000      -9.000000     -10.000000
      -9.000000      -9.000000     -10.000000
      -8.000000      -9.000000     -10.000000
      -7.000000      -9.000000     -10.000000
      -6.000000      -9.000000     -10.000000
      -5.000000      -9.000000     -10.000000
      -4.000000      -9.000000     -10.000000
      -3.000000      -9.000000     -10.000000
      -2.000000      -9.000000     -10.000000
      -1.000000      -9.000000     -10.000000
       0.000000      -9.000000     -10.000000
       1.000000      -9.000000     -10.000000
       2.000000      -9.000000     -10.000000
       3.000000      -9.000000     -10.000000
       4.000000      -9.000000     -10.000000
       5.000000      -9.000000     -10.000000
       6.000000      -9.000000     -10.000000
       7.000000      -9.000000     -10.000000
       8.000000      -9.000000     -10.000000
       9.000000      -9.000000     -10.000000
      10.000000      -9.000000     -10.000000
     -50.000000      -8.000000     -10.000000
     -49.000000      -8.000000     -10.000000
     -48.000000      -8.000000     -10.000000
     -47.000000      -8.000000     -10.000000
     -46.000000      -8.000000     -10.000000
     -45.000000      -8.000000     -10.000000
     -44.000000      -8.000000     -10.000000
     -43.000000      -8.000000     -10.000000
     -42.000000      -8.000000     -10.000000
     -41.000000      -8.000000     -10.000000
     -40.000000      -8.000000     -10.000000
     -39.000000      -8.000000     -10.000000
     -38.000000      -8.000000     -10.000000
     -37.000000      -8.000000     -10.000000
     -36.000000      -8.000000     -10.000000
     -35.000000      -8.000000     -10.000000
     -34.000000      -8.000000     -10.000000
     -33.000000      -8.000000     -10.000000
     -32.000000      -8.000000     -10.000000
     -31.000000      -8.000000     -10.000000
     -30.000000      -8.000000     -10.000000
     -29.000000      -8.000000     -10.000000
     -28.000000      -8.000000     -10.000000
     -27.000000      -8.000000     -10.000000
     -26.000000      -8.000000     -10.000000
     -25.000000      -8.000000     -10.000000
     -24.000000      -8.000000     -10.000000
     -23.000000      -8.000000     -10.000000
     -22.000000      -8.000000     -10.000000
     -21.000000      -8.000000     -10.000000
     -20.000000      -8.000000     -10.000000
     -19.000000      -8.000000     -10.000000
     -18.000000      -8.000000     -10.000000
     -17.000000      -8.000000     -10.000000
     -16.000000      -8.000000     -10.000000
     -15.000000      -8.000000     -10.000000
     -14.000000      -8.000000     -10.000000
     -13.000000      -8.000000     -10.000000
     -12.000000      -8.000000     -10.000000
     -11.000000      -8.000000     -10.000000
     -10.000000      -8.000000     -10.000000
      -9.000000      -8.000000     -10.000000
      -8.000000      -8.000000     -10.000000
      -7.000000      -8.000000     -10.000000
      -6.000000      -8.000000     -10.000000
      -5.000000      -8.000000     -10.000000
      -4.000000      -8.000000     -10.000000
      -3.000000      -8.000000     -10.000000
      -2.000000      -8.000000     -10.000000
      -1.000000      -8.000000     -10.000000
       0.000000      -8.000000     -10.000000
       1.000000      -8.000000     -10.000000
       2.000000      -8.000000     -10.000000
       3.000000      -8.000000     -10.000000
       4.000000      -8.000000     -10.000000
       5.000000      -8.000000     -10.000000
       6.000000      -8.000000     -10.000000
       7.000000      -8.000000     -10.000000
       8.000000      -8.000000     -10.000000
       9.000000      -8.000000     -10.000000
      10.000000      -8.000000     -10.000000
     -50.000000      -7.000000     -10.000000
     -49.000000      -7.000000     -10.000000
     -48.000000      -7.000000     -10.000000
     -47.000000      -7.000000     -10.000000
     -46.000000      -7.000000     -10.000000
     -45.000000      -7.000000     -10.000000
     -44.000000      -7.000000     -10.000000
     -43.000000      -7.000000     -10.000000
     -42.000000      -7.000000     -10.000000
     -41.000000      -7.000000     -10.000000
     -40.000000      -7.000000     -10.000000
     -39.000000      -7.000000     -10.000000
     -38.000000      -7.000000     -10.000000
     -37.000000      -7.000000     -10.000000
     -36.000000      -7.000000     -10.000000
     -35.000000      -7.000000     -10.000000
     -34.000000      -7.000000     -10.000000
     -33.000000      -7.000000     -10.000000
     -32.000000      -7.000000     -10.000000
     -31.000000      -7.000000     -10.000000
     -30.000000      -7.000000     -10.000000
     -29.000000      -7.000000     -10.000000
     -28.000000      -7.000000     -10.000000
     -27.000000      -7.000000     -10.000000
     -26.000000      -7.000000     -10.000000
     -25.000000      -7.000000     -10.000000
[...]
POINT_DATA    26901
VECTORS B_total float
  -8.6046867E+00  -8.0764961E-01   3.3406818E+00
  -8.9114246E+00  -8.3124197E-01   3.4234102E+00
  -9.2280798E+00  -8.5667562E-01   3.5066822E+00
  -9.5550108E+00  -8.8417494E-01   3.5903218E+00
  -9.8926239E+00  -9.1399276E-01   3.6741381E+00
  -1.0241376E+01  -9.4641352E-01   3.7579195E+00
  -1.0601784E+01  -9.8175752E-01   3.8414345E+00
  -1.0974437E+01  -1.0203855E+00   3.9244239E+00
  -1.1359997E+01  -1.0627038E+00   4.0065961E+00
  -1.1759214E+01  -1.1091698E+00   4.0876212E+00
  -1.2172936E+01  -1.1602993E+00   4.1671205E+00
  -1.2602109E+01  -1.2166728E+00   4.2446542E+00
  -1.3047787E+01  -1.2789448E+00   4.3197155E+00
  -1.3511134E+01  -1.3478521E+00   4.3917074E+00
  -1.3993430E+01  -1.4242234E+00   4.4599328E+00
  -1.4496063E+01  -1.5089910E+00   4.5235763E+00
  -1.5020518E+01  -1.6032008E+00   4.5816841E+00
  -1.5568374E+01  -1.7080256E+00   4.6331477E+00
  -1.6141277E+01  -1.8247771E+00   4.6766891E+00
  -1.6740927E+01  -1.9549199E+00   4.7108464E+00
  -1.7369036E+01  -2.1000862E+00   4.7339625E+00
  -1.8027304E+01  -2.2620912E+00   4.7441835E+00
  -1.8717392E+01  -2.4429514E+00   4.7394567E+00
  -1.9440876E+01  -2.6449075E+00   4.7175403E+00
  -2.0199224E+01  -2.8704479E+00   4.6760063E+00
  -2.0993769E+01  -3.1223447E+00   4.6122541E+00
  -2.1825661E+01  -3.4036896E+00   4.5235000E+00
  -2.2695837E+01  -3.7179451E+00   4.4067850E+00
  -2.3604954E+01  -4.0690012E+00   4.2589512E+00
  -2.4553282E+01  -4.4612327E+00   4.0766325E+00
  -2.5540562E+01  -4.8995643E+00   3.8562465E+00
  -2.6565798E+01  -5.3895278E+00   3.5940413E+00
  -2.7627043E+01  -5.9373112E+00   3.2861767E+00
  -2.8721169E+01  -6.5498028E+00   2.9289048E+00
  -2.9843672E+01  -7.2346234E+00   2.5188003E+00
  -3.0988564E+01  -8.0001545E+00   2.0530167E+00
  -3.2148357E+01  -8.8555489E+00   1.5294948E+00
  -3.3314049E+01  -9.8106833E+00   9.4703698E-01
  -3.4474998E+01  -1.0875976E+01   3.0518973E-01
  -3.5618511E+01  -1.2061904E+01  -3.9603996E-01
  -3.6728931E+01  -1.3378019E+01  -1.1564465E+00
  -3.7786255E+01  -1.4831182E+01  -1.9755133E+00
  -3.8764549E+01  -1.6422785E+01  -2.8514457E+00
  -3.9631134E+01  -1.8144993E+01  -3.7789178E+00
  -4.0347603E+01  -1.9976400E+01  -4.7455430E+00
  -4.0874180E+01  -2.1878090E+01  -5.7277060E+00
  -4.1177883E+01  -2.3791668E+01  -6.6871262E+00
  -4.1243881E+01  -2.5641130E+01  -7.5698862E+00
  -4.1087460E+01  -2.7339836E+01  -8.3094339E+00
  -4.0762779E+01  -2.8802624E+01  -8.8339596E+00
  -4.0364479E+01  -2.9961246E+01  -9.0769424E+00
  -3.7792965E+01  -2.9083118E+01  -8.4641953E+00
  -7.4536562E-02  -3.7504578E-01   3.9389086E-01
  -6.2641740E-02  -3.8870144E-01   3.8279581E-01
  -4.6724081E-02  -3.9863205E-01   3.7604952E-01
  -2.8834581E-02  -4.0412998E-01   3.7404490E-01
  -1.0978222E-02  -4.0520954E-01   3.7649012E-01
   5.2518845E-03  -4.0244770E-01   3.8260293E-01
   1.8854618E-02  -3.9674950E-01   3.9133668E-01
   2.9382706E-02  -3.8909245E-01   4.0164375E-01
   3.6846161E-02  -3.8036919E-01   4.1259837E-01
  -8.6694136E+00  -7.7438527E-01   3.3860478E+00
  -8.9797649E+00  -7.9684758E-01   3.4688327E+00
  -9.3003263E+00  -8.2105386E-01   3.5520363E+00
  -9.6314907E+00  -8.4721088E-01   3.6354742E+00
  -9.9736967E+00  -8.7555122E-01   3.7189450E+00
  -1.0327440E+01  -9.0633649E-01   3.8022289E+00
  -1.0693284E+01  -9.3986166E-01   3.8850827E+00
  -1.1071866E+01  -9.7645891E-01   3.9672365E+00
  -1.1463907E+01  -1.0165029E+00   4.0483856E+00
  -1.1870225E+01  -1.0604161E+00   4.1281838E+00
  -1.2291739E+01  -1.1086757E+00   4.2062340E+00
  -1.2729481E+01  -1.1618202E+00   4.2820749E+00
  -1.3184602E+01  -1.2204583E+00   4.3551683E+00
  -1.3658379E+01  -1.2852769E+00   4.4248815E+00
  -1.4152213E+01  -1.3570522E+00   4.4904728E+00
  -1.4667632E+01  -1.4366598E+00   4.5510683E+00
  -1.5206281E+01  -1.5250868E+00   4.6056418E+00
  -1.5769910E+01  -1.6234446E+00   4.6529975E+00
  -1.6360363E+01  -1.7329824E+00   4.6917496E+00
  -1.6979548E+01  -1.8551034E+00   4.7203035E+00
  -1.7629408E+01  -1.9913793E+00   4.7368484E+00
  -1.8311907E+01  -2.1435699E+00   4.7393494E+00
  -1.9028976E+01  -2.3136454E+00   4.7255435E+00
  -1.9782511E+01  -2.5038099E+00   4.6929488E+00
  -2.0574312E+01  -2.7165358E+00   4.6388631E+00
  -2.1406101E+01  -2.9546032E+00   4.5603752E+00
  -2.2279465E+01  -3.2211471E+00   4.4543438E+00
  -2.3195837E+01  -3.5197234E+00   4.3173995E+00
  -2.4156439E+01  -3.8543789E+00   4.1459002E+00
  -2.5162184E+01  -4.2297349E+00   3.9359016E+00
  -2.6213518E+01  -4.6510773E+00   3.6831326E+00
  -2.7310219E+01  -5.1244497E+00   3.3830090E+00
  -2.8451141E+01  -5.6567531E+00   3.0307183E+00
  -2.9633968E+01  -6.2558427E+00   2.6213746E+00
  -3.0855003E+01  -6.9306407E+00   2.1502528E+00
  -3.2109039E+01  -7.6912580E+00   1.6130205E+00
  -3.3389297E+01  -8.5491219E+00   1.0059043E+00
  -3.4687351E+01  -9.5170536E+00   3.2565761E-01
  -3.5992790E+01  -1.0609211E+01  -4.3071032E-01
  -3.7292435E+01  -1.1840670E+01  -1.2663927E+00
  -3.8568710E+01  -1.3226366E+01  -2.1851726E+00
  -3.9797245E+01  -1.4778982E+01  -3.1911776E+00
  -4.0944046E+01  -1.6505438E+01  -4.2872744E+00
  -4.1963409E+01  -1.8401758E+01  -5.4714971E+00
  -4.2798576E+01  -2.0446812E+01  -6.7313604E+00
  -4.3387142E+01  -2.2596085E+01  -8.0370522E+00
  -4.3672462E+01  -2.4777649E+01  -9.3355398E+00
  -4.3620522E+01  -2.6893192E+01  -1.0548556E+01
  -4.3238556E+01  -2.8826462E+01  -1.1576982E+01
  -4.2589630E+01  -3.0459610E+01  -1.2312689E+01
  -4.1796356E+01  -3.1694962E+01  -1.2655910E+01
  -4.1029812E+01  -3.2476448E+01  -1.2533422E+01
  -3.1818443E+01  -2.5844664E+01  -9.2791538E+00
  -7.6266408E-02  -3.8519859E-01   3.4307671E-01
  -5.5654526E-02  -3.9814758E-01   3.3498049E-01
  -3.2688618E-02  -4.0559864E-01   3.3369303E-01
  -1.0163307E-02  -4.0757561E-01   3.3860779E-01
   9.8295212E-03  -4.0489101E-01   3.4839106E-01
   2.6069641E-02  -3.9871788E-01   3.6143827E-01
   3.8151264E-02  -3.9031982E-01   3.7620640E-01
   4.6265602E-02  -3.8081074E-01   3.9141297E-01
  -8.7376957E+00  -7.3853999E-01   3.4322507E+00
  -9.0516396E+00  -7.5950211E-01   3.5151126E+00
  -9.3760681E+00  -7.8207856E-01   3.5982702E+00
  -9.7114019E+00  -8.0645615E-01   3.6815288E+00
  -1.0058110E+01  -8.3284521E-01   3.7646790E+00
  -1.0416726E+01  -8.6148232E-01   3.8474905E+00
  -1.0787854E+01  -8.9263415E-01   3.9297104E+00
  -1.1172177E+01  -9.2660153E-01   4.0110559E+00
  -1.1570471E+01  -9.6372396E-01   4.0912099E+00
  -1.1983613E+01  -1.0043849E+00   4.1698103E+00
  -1.2412595E+01  -1.0490180E+00   4.2464404E+00
  -1.2858526E+01  -1.0981143E+00   4.3206158E+00
  -1.3322651E+01  -1.1522295E+00   4.3917685E+00
  -1.3806350E+01  -1.2119930E+00   4.4592295E+00
  -1.4311142E+01  -1.2781179E+00   4.5222101E+00
  -1.4838688E+01  -1.3514112E+00   4.5797782E+00
  -1.5390784E+01  -1.4327865E+00   4.6308355E+00
  -1.5969350E+01  -1.5232762E+00   4.6740961E+00
  -1.6576414E+01  -1.6240462E+00   4.7080626E+00
  -1.7214096E+01  -1.7364117E+00   4.7310114E+00
  -1.7884567E+01  -1.8618548E+00   4.7409730E+00
  -1.8590050E+01  -2.0020442E+00   4.7357259E+00
  -1.9332758E+01  -2.1588597E+00   4.7127934E+00
  -2.0114901E+01  -2.3344209E+00   4.6694441E+00
  -2.0938644E+01  -2.5311248E+00   4.6026959E+00
  -2.1806107E+01  -2.7516878E+00   4.5093031E+00
  -2.2719351E+01  -2.9992094E+00   4.3857565E+00
  -2.3680361E+01  -3.2772408E+00   4.2282419E+00
  -2.4690998E+01  -3.5898747E+00   4.0325947E+00
  -2.5752905E+01  -3.9418464E+00   3.7942352E+00
  -2.6867373E+01  -4.3386531E+00   3.5081234E+00
  -2.8035122E+01  -4.7866826E+00   3.1687450E+00
  -2.9256048E+01  -5.2933602E+00   2.7701592E+00
  -3.0528961E+01  -5.8673162E+00   2.3061500E+00
  -3.1851387E+01  -6.5185852E+00   1.7704104E+00
  -3.3219437E+01  -7.2588477E+00   1.1567376E+00
  -3.4627739E+01  -8.1017075E+00   4.5908856E-01
  -3.6069275E+01  -9.0629482E+00  -3.2862663E-01
  -3.7534870E+01  -1.0160672E+01  -1.2130728E+00
  -3.9011871E+01  -1.1415050E+01  -2.2022409E+00
  -4.0481686E+01  -1.2847302E+01  -3.3060675E+00
  -4.1915947E+01  -1.4477379E+01  -4.5360985E+00
  -4.3271820E+01  -1.6319704E+01  -5.9031305E+00
  -4.4488083E+01  -1.8376646E+01  -7.4118075E+00
  -4.5484623E+01  -2.0629904E+01  -9.0518723E+00
  -4.6168709E+01  -2.3031231E+01  -1.0787336E+01
  -4.6450394E+01  -2.5495426E+01  -1.2546581E+01
  -4.6266762E+01  -2.7899540E+01  -1.4218111E+01
  -4.5610367E+01  -3.0092503E+01  -1.5656481E+01
  -4.4552811E+01  -3.1916767E+01  -1.6700748E+01
  -4.3252293E+01  -3.3238594E+01  -1.7202675E+01
  -4.1938145E+01  -3.3978714E+01  -1.7056732E+01
  -4.0873661E+01  -3.4132420E+01  -1.6221033E+01
  -1.1603685E+01  -9.9297400E+00  -4.0014343E+00
  -6.7734718E-02  -3.8750648E-01   2.8662777E-01
  -3.8505077E-02  -3.9824295E-01   2.8614712E-01
  -1.0275364E-02  -4.0228844E-01   2.9420376E-01
   1.4225006E-02  -4.0068436E-01   3.0867672E-01
   3.3544540E-02  -3.9494419E-01   3.2715082E-01
   4.7365189E-02  -3.8662338E-01   3.4743118E-01
   5.6134701E-02  -3.7705135E-01   3.6779451E-01
  -8.8068905E+00  -6.9913375E-01   3.4780369E+00
  -9.1243029E+00  -7.1824294E-01   3.5610206E+00
  -9.4524508E+00  -7.3880953E-01   3.6441834E+00
  -9.7917776E+00  -7.6099896E-01   3.7273238E+00
  -1.0142785E+01  -7.8499752E-01   3.8102224E+00
  -1.0506035E+01  -8.1101501E-01   3.8926404E+00
  -1.0882172E+01  -8.3928782E-01   3.9743145E+00
  -1.1271920E+01  -8.7008280E-01   4.0549521E+00
  -1.1676104E+01  -9.0370142E-01   4.1342220E+00
  -1.2095657E+01  -9.4048500E-01   4.2117476E+00
  -1.2531634E+01  -9.8081988E-01   4.2870941E+00
  -1.2985222E+01  -1.0251442E+00   4.3597541E+00
  -1.3457746E+01  -1.0739554E+00   4.4291320E+00
  -1.3950684E+01  -1.1278175E+00   4.4945240E+00
  -1.4465663E+01  -1.1873721E+00   4.5550952E+00
  -1.5004471E+01  -1.2533466E+00   4.6098580E+00
  -1.5569044E+01  -1.3265675E+00   4.6576443E+00
  -1.6161459E+01  -1.4079726E+00   4.6970820E+00
  -1.6783922E+01  -1.4986241E+00   4.7265687E+00
  -1.7438753E+01  -1.5997258E+00   4.7442513E+00
  -1.8128345E+01  -1.7126406E+00   4.7480068E+00
  -1.8855167E+01  -1.8389113E+00   4.7354355E+00
  -1.9621714E+01  -1.9802856E+00   4.7038484E+00
  -2.0430506E+01  -2.1387472E+00   4.6502705E+00
  -2.1284073E+01  -2.3165562E+00   4.5714378E+00
  -2.2184952E+01  -2.5162938E+00   4.4637780E+00
  -2.3135693E+01  -2.7409327E+00   4.3233995E+00
  -2.4138861E+01  -2.9939134E+00   4.1460385E+00
  -2.5196995E+01  -3.2792435E+00   3.9269843E+00
  -2.6312550E+01  -3.6016154E+00   3.6609941E+00
  -2.7487761E+01  -3.9665487E+00   3.3422084E+00
  -2.8724428E+01  -4.3805504E+00   2.9641018E+00
  -3.0023693E+01  -4.8513093E+00   2.5195036E+00
  -3.1385794E+01  -5.3879280E+00   2.0006928E+00
  -3.2809879E+01  -6.0012188E+00   1.3995385E+00
  -3.4293926E+01  -6.7040677E+00   7.0758736E-01
  -3.5834724E+01  -7.5118885E+00  -8.4040642E-02
  -3.7427635E+01  -8.4430990E+00  -9.8513389E-01
  -3.9065884E+01  -9.5195093E+00  -2.0073080E+00
  -4.0738716E+01  -1.0766357E+01  -3.1652179E+00
  -4.2427864E+01  -1.2211485E+01  -4.4775825E+00
  -4.4101894E+01  -1.3882979E+01  -5.9668789E+00
  -4.5709057E+01  -1.5804413E+01  -7.6561589E+00
  -4.7170570E+01  -1.7986923E+01  -9.5613308E+00
  -4.8378006E+01  -2.0418106E+01  -1.1678286E+01
  -4.9199909E+01  -2.3049137E+01  -1.3966127E+01
  -4.9501476E+01  -2.5783518E+01  -1.6331032E+01
  -4.9178558E+01  -2.8473412E+01  -1.8617714E+01
  -4.8199905E+01  -3.0929754E+01  -2.0616680E+01
  -4.6644215E+01  -3.2949669E+01  -2.2091908E+01
  -4.4714420E+01  -3.4357544E+01  -2.2825701E+01
  -4.2716335E+01  -3.5047775E+01  -2.2667374E+01
  -4.1003468E+01  -3.5012600E+01  -2.1566845E+01
  -3.9906155E+01  -3.4343876E+01  -1.9579380E+01
  -8.4709644E-02  -3.6181259E-01   2.3380375E-01
  -4.7911644E-02  -3.7785530E-01   2.3366642E-01
  -1.2742043E-02  -3.8586998E-01   2.4513817E-01
   1.7171860E-02  -3.8705730E-01   2.6501369E-01
   4.0151596E-02  -3.8325596E-01   2.8980017E-01
   5.6024551E-02  -3.7634468E-01   3.1643724E-01
   6.5572739E-02  -3.6787176E-01   3.4267807E-01
  -8.8741417E+00  -6.5555543E-01   3.5219483E+00
  -9.1947947E+00  -6.7249018E-01   3.6051047E+00
  -9.5264063E+00  -6.9070363E-01   3.6883371E+00
  -9.8694420E+00  -7.1033865E-01   3.7714362E+00
  -1.0224429E+01  -7.3155648E-01   3.8541756E+00
  -1.0591959E+01  -7.5453836E-01   3.9363079E+00
  -1.0972708E+01  -7.7948892E-01   4.0175610E+00
  -1.1367438E+01  -8.0663925E-01   4.0976319E+00
  -1.1777019E+01  -8.3625090E-01   4.1761794E+00
  -1.2202434E+01  -8.6861992E-01   4.2528124E+00
  -1.2644794E+01  -9.0408230E-01   4.3270793E+00
  -1.3105352E+01  -9.4301951E-01   4.3984537E+00
  -1.3585511E+01  -9.8586524E-01   4.4663134E+00
  -1.4086834E+01  -1.0331129E+00   4.5299225E+00
  -1.4611049E+01  -1.0853240E+00   4.5884056E+00
  -1.5160055E+01  -1.1431382E+00   4.6407232E+00
  -1.5735916E+01  -1.2072829E+00   4.6856441E+00
  -1.6340855E+01  -1.2785861E+00   4.7217155E+00
  -1.6977242E+01  -1.3579900E+00   4.7472382E+00
  -1.7647575E+01  -1.4465649E+00   4.7602401E+00
  -1.8354464E+01  -1.5455283E+00   4.7584586E+00
  -1.9100599E+01  -1.6562639E+00   4.7393241E+00
  -1.9888748E+01  -1.7803483E+00   4.6999521E+00
  -2.0721733E+01  -1.9195807E+00   4.6371369E+00
  -2.1602432E+01  -2.0760241E+00   4.5473485E+00
  -2.2533794E+01  -2.2520514E+00   4.4266996E+00
  -2.3518862E+01  -2.4504182E+00   4.2709341E+00
  -2.4560774E+01  -2.6743414E+00   4.0753431E+00
  -2.5662779E+01  -2.9276028E+00   3.8346770E+00
  -2.6828165E+01  -3.2146795E+00   3.5430264E+00
  -2.8060162E+01  -3.5408959E+00   3.1937008E+00
  -2.9361757E+01  -3.9126117E+00   2.7791378E+00
  -3.0735483E+01  -4.3374505E+00   2.2908726E+00
  -3.2183220E+01  -4.8245893E+00   1.7195790E+00
  -3.3706093E+01  -5.3851309E+00   1.0551194E+00
  -3.5304455E+01  -6.0325971E+00   2.8648877E-01
  -3.6977936E+01  -6.7835336E+00  -5.9853601E-01
  -3.8725246E+01  -7.6582236E+00  -1.6142502E+00
  -4.0543262E+01  -8.6813679E+00  -2.7784734E+00
  -4.2424686E+01  -9.8824682E+00  -4.1144485E+00
  -4.4353233E+01  -1.1295353E+01  -5.6525078E+00
  -4.6295971E+01  -1.2956042E+01  -7.4300208E+00
  -4.8192997E+01  -1.4897795E+01  -9.4874306E+00
  -4.9946842E+01  -1.7142147E+01  -1.1857885E+01
  -5.1416721E+01  -1.9685543E+01  -1.4548999E+01
  -5.2424084E+01  -2.2482544E+01  -1.7518085E+01
  -5.2776932E+01  -2.5429733E+01  -2.0646515E+01
  -5.2315594E+01  -2.8357788E+01  -2.3723988E+01
  -5.0973358E+01  -3.1040863E+01  -2.6455952E+01
  -4.8833172E+01  -3.3229637E+01  -2.8503548E+01
  -4.6152538E+01  -3.4704494E+01  -2.9552784E+01
  -4.3335007E+01  -3.5332409E+01  -2.9391373E+01
  -4.0849628E+01  -3.5104496E+01  -2.7961927E+01
  -3.9127228E+01  -3.4136723E+01  -2.5366772E+01
  -3.8094612E+01  -3.2314629E+01  -2.1606150E+01
  -6.3230515E-02  -3.4049034E-01   1.8111229E-01
  -1.9756317E-02  -3.5506630E-01   1.9533730E-01
   1.6725540E-02  -3.6144638E-01   2.2056007E-01
   4.4178963E-02  -3.6174583E-01   2.5188065E-01
   6.2629700E-02  -3.5809708E-01   2.8520393E-01
   7.3316574E-02  -3.5230875E-01   3.1758690E-01
  -8.9365978E+00  -6.0758913E-01   3.5624478E+00
  -9.2601671E+00  -6.2206852E-01   3.6458192E+00
  -9.5948877E+00  -6.3763094E-01   3.7291787E+00
  -9.9412451E+00  -6.5439624E-01   3.8123107E+00
  -1.0299787E+01  -6.7249936E-01   3.8949826E+00
  -1.0671130E+01  -6.9209230E-01   3.9769402E+00
  -1.1055982E+01  -7.1334672E-01   4.0579042E+00
  -1.1455135E+01  -7.3645651E-01   4.1375628E+00
  -1.1869498E+01  -7.6164150E-01   4.2155652E+00
  -1.2300097E+01  -7.8915054E-01   4.2915092E+00
  -1.2748095E+01  -8.1926662E-01   4.3649292E+00
  -1.3214799E+01  -8.5231131E-01   4.4352798E+00
  -1.3701680E+01  -8.8865107E-01   4.5019188E+00
  -1.4210379E+01  -9.2870325E-01   4.5640802E+00
  -1.4742706E+01  -9.7294384E-01   4.6208549E+00
  -1.5300663E+01  -1.0219159E+00   4.6711578E+00
  -1.5886425E+01  -1.0762388E+00   4.7137008E+00
  -1.6502342E+01  -1.1366193E+00   4.7469630E+00
  -1.7150932E+01  -1.2038634E+00   4.7691584E+00
  -1.7834852E+01  -1.2788900E+00   4.7782121E+00
  -1.8556902E+01  -1.3627477E+00   4.7717347E+00
  -1.9319986E+01  -1.4566334E+00   4.7470088E+00
  -2.0127104E+01  -1.5619160E+00   4.7009749E+00
  -2.0981363E+01  -1.6801660E+00   4.6302209E+00
  -2.1885971E+01  -1.8131948E+00   4.5309744E+00
  -2.2844257E+01  -1.9630971E+00   4.3990655E+00
  -2.3859734E+01  -2.1323237E+00   4.2298956E+00
  -2.4936098E+01  -2.3237560E+00   4.0183449E+00
  -2.6077278E+01  -2.5408115E+00   3.7586584E+00
  -2.7287392E+01  -2.7875698E+00   3.4442885E+00
  -2.8570662E+01  -3.0689321E+00   3.0677438E+00
  -2.9931278E+01  -3.3908186E+00   2.6204486E+00
  -3.1373236E+01  -3.7604139E+00   2.0926592E+00
  -3.2900188E+01  -4.1864929E+00   1.4734236E+00
  -3.4515453E+01  -4.6798458E+00   7.5052309E-01
  -3.6222099E+01  -5.2538533E+00  -8.9777470E-02
  -3.8023155E+01  -5.9252210E+00  -1.0633726E+00
  -3.9921452E+01  -6.7148743E+00  -2.1896675E+00
  -4.1918640E+01  -7.6489120E+00  -3.4937010E+00
  -4.4012310E+01  -8.7593431E+00  -5.0089459E+00
  -4.6190002E+01  -1.0084074E+01  -6.7798939E+00
  -4.8419220E+01  -1.1665215E+01  -8.8625975E+00
  -5.0633461E+01  -1.3544350E+01  -1.1320137E+01
  -5.2716938E+01  -1.5753216E+01  -1.4209399E+01
  -5.4493996E+01  -1.8298740E+01  -1.7556616E+01
  -5.5732498E+01  -2.1142994E+01  -2.1322220E+01
  -5.6171974E+01  -2.4182301E+01  -2.5362312E+01
  -5.5582726E+01  -2.7234276E+01  -2.9401585E+01
  -5.3849754E+01  -3.0045101E+01  -3.3038780E+01
  -5.1055790E+01  -3.2326660E+01  -3.5801769E+01
  -4.7521946E+01  -3.3820896E+01  -3.7249714E+01
  -4.3771034E+01  -3.4371155E+01  -3.7090412E+01
  -4.0413395E+01  -3.3969254E+01  -3.5260876E+01
  -3.7999435E+01  -3.2755199E+01  -3.1931854E+01
  -3.6902225E+01  -3.0970819E+01  -2.7436394E+01
  -8.7403297E-02  -2.8389359E-01   1.3646889E-01
  -3.4075737E-02  -3.0808544E-01   1.5108109E-01
   1.0349274E-02  -3.2251167E-01   1.8019390E-01
   4.3390274E-02  -3.2943821E-01   2.1716595E-01
   6.5291405E-02  -3.3126926E-01   2.5654793E-01
   7.7788353E-02  -3.3001184E-01   2.9462814E-01
  -8.9916191E+00  -5.5538970E-01   3.5980418E+00
  -9.3176928E+00  -5.6717819E-01   3.6816480E+00
  -9.6550789E+00  -5.7984167E-01   3.7651715E+00
  -1.0004278E+01  -5.9347624E-01   3.8483915E+00
  -1.0365856E+01  -6.0819012E-01   3.9310701E+00
  -1.0740456E+01  -6.2410522E-01   4.0129480E+00
  -1.1128798E+01  -6.4135945E-01   4.0937395E+00
  -1.1531713E+01  -6.6010863E-01   4.1731272E+00
  -1.1950137E+01  -6.8052912E-01   4.2507510E+00
  -1.2385132E+01  -7.0282167E-01   4.3262000E+00
  -1.2837901E+01  -7.2721398E-01   4.3989978E+00
  -1.3309806E+01  -7.5396550E-01   4.4685841E+00
  -1.3802366E+01  -7.8337210E-01   4.5342970E+00
  -1.4317287E+01  -8.1577128E-01   4.5953503E+00
  -1.4856459E+01  -8.5154873E-01   4.6508031E+00
  -1.5421958E+01  -8.9114487E-01   4.6995344E+00
  -1.6016058E+01  -9.3506318E-01   4.7402096E+00
  -1.6641218E+01  -9.8387927E-01   4.7712488E+00
  -1.7300077E+01  -1.0382510E+00   4.7907958E+00
  -1.7995438E+01  -1.0989305E+00   4.7966857E+00
  -1.8730249E+01  -1.1667786E+00   4.7864285E+00
  -1.9507605E+01  -1.2427803E+00   4.7571788E+00
  -2.0330715E+01  -1.3280672E+00   4.7057281E+00
  -2.1202929E+01  -1.4239424E+00   4.6284900E+00
  -2.2127748E+01  -1.5319165E+00   4.5214863E+00
  -2.3108845E+01  -1.6537441E+00   4.3802996E+00
  -2.4150146E+01  -1.7914912E+00   4.2000346E+00
  -2.5255865E+01  -1.9476016E+00   3.9752107E+00
  -2.6430546E+01  -2.1249933E+00   3.6996169E+00
  -2.7679073E+01  -2.3271766E+00   3.3661392E+00
  -2.9006607E+01  -2.5584028E+00   2.9665565E+00
  -3.0418486E+01  -2.8238544E+00   2.4913619E+00
  -3.1920116E+01  -3.1298892E+00   1.9296196E+00