<?xml version="1.0"?>
<VTKFile type="StructuredGrid" version="0.1" byte_order="LittleEndian" header_type="UInt32" compressor="vtkZLibDataCompressor">
  <StructuredGrid WholeExtent="0 60 0 20 0 20">
  <Piece Extent="0 60 0 20 0 20">
    <PointData Vectors="B_total">
      <DataArray type="Float32" Name="B_total" NumberOfComponents="3" format="ascii" RangeMin="0" RangeMax="65957.06210315262">
        -10.416009 -1.5425496 3.162427 -10.762527 -1.5848153 3.2507856
        -11.117958 -1.6285757 3.3398938 -11.482489 -1.6739938 3.4294305
        -11.856343 -1.7212586 3.5190294 -12.239788 -1.7705885 3.6082752
        -12.633142 -1.8222344 3.6966975 -13.036782 -1.8764832 3.783764
        -13.451148 -1.9336615 3.8688717 -13.876757 -1.99414 3.9513412
        -14.314196 -2.0583375 4.030403 -14.764142 -2.1267254 4.10519
        -15.227353 -2.1998339 4.1747246 -15.704674 -2.2782567 4.23791
        -16.197035 -2.362657 4.2935133 -16.705444 -2.4537773 4.3401613
        -17.23098 -2.5524457 4.376326 -17.77478 -2.659587 4.4003205
        -18.338017 -2.776235 4.410293 -18.921885 -2.9035485 4.404228
        -19.527569 -3.0428274 4.3799534 -20.156212 -3.195537 4.335143
        -20.808886 -3.3633363 4.26734 -21.486544 -3.5481095 4.1739707
        -22.189983 -3.752007 4.0523653 -22.919767 -3.9774942 3.8997855
        -23.676184 -4.227405 3.7134614 -24.459106 -4.505006 3.4906092
        -25.267893 -4.814066 3.2284956 -26.10121 -5.1589394 2.9245057
        -26.956825 -5.5446444 2.5762658 -27.831347 -5.9769526 2.1818125
        -28.719942 -6.462467 1.7398511 -29.61605 -7.008686 1.2500873
        -30.51107 -7.624001 0.71364725 -31.394117 -8.317606 0.133541
        -32.251797 -9.099225 -0.48482686 -33.06802 -9.978537 -1.1331855
        -33.823887 -10.964174 -1.7999206 -34.49761 -12.06211 -2.469606
        -35.06453 -13.273287 -3.1223702 -35.49757 -14.590458 -3.7329564
        -35.7684 -15.994359 -4.269211 -35.85017 -17.449791 -4.690068
        -35.722427 -18.902428 -4.9433146 -35.378597 -20.277779 -4.9642234
        -34.835373 -21.483685 -4.676228 -34.142063 -22.417454 -3.9948826
        -33.386505 -22.977251 -2.8350263 -0.10130072 -0.43222904 0.42706013
        -0.085460186 -0.46010017 0.4159937 -0.06308031 -0.4822569 0.40884018
        -0.036661625 -0.49660778 0.4065969 -0.009237766 -0.5022602 0.40943193
        0.016315937 -0.4995823 0.41670585 0.03783655 -0.4899454 0.42720938
        0.054136753 -0.47527504 0.43950766 0.06496906 -0.45760345 0.45225912
        0.07079077 -0.43873167 0.4644045 0.07247496 -0.4200554 0.47525
        0.07103634 -0.40251493 0.48444474 -10.461789 -1.4369013 3.1541443
        -10.809753 -1.4756165 3.2405884 -11.166784 -1.5156928 3.327608
        -11.533094 -1.5572791 3.4148757 -11.908937 -1.6005485 3.5020201
        -12.294607 -1.6457012 3.588621 -12.690461 -1.692967 3.6742022
        -13.096912 -1.7426099 3.758225 -13.514444 -1.7949302 3.8400817
        -13.943615 -1.8502697 3.919084 -14.385063 -1.9090149 3.9944553
        -14.839516 -1.9716024 4.065318 -15.307789 -2.0385242 4.130684
        -15.790789 -2.110333 4.1894407 -16.28951 -2.1876493 4.24034
        -16.805035 -2.2711697 4.2819867 -17.338524 -2.361676 4.312828
        -17.891201 -2.4600465 4.331144 -18.46434 -2.5672693 4.3350444
        -19.059254 -2.6844609 4.322464 -19.677254 -2.8128848 4.291165
        -20.319647 -2.9539797 4.2387424 -20.98769 -3.1093903 4.162632
        -21.682552 -3.2810066 4.0601225 -22.40529 -3.471012 3.9283683
        -23.156786 -3.681941 3.7643986 -23.937687 -3.9167492 3.5651488
        -24.74831 -4.178893 3.327457 -25.58853 -4.4724298 3.0481083
        -26.457617 -4.8021245 2.7238863 -27.354046 -5.173584 2.3516545
        -28.275251 -5.593398 1.9284914 -29.217354 -6.0692925 1.4518843
        -30.174845 -6.6102734 0.9199841 -31.140232 -7.22673 0.33190536
        -32.103683 -7.930451 -0.3119251 -33.052555 -8.734432 -1.0094169
        -33.970837 -9.652376 -1.7564344 -34.838455 -10.697649 -2.5463383
        -35.630344 -11.881491 -3.3693032 -36.31558 -13.210241 -4.2111497
        -36.856735 -14.681377 -5.0513315 -37.21046 -16.278543 -5.8598204
        -37.330208 -17.965912 -6.592905 -37.17255 -19.683119 -7.188626
        -36.707806 -21.342566 -7.56349 -35.93436 -22.831308 -7.612748
        -34.893818 -24.019594 -7.2165112 -33.681877 -24.776438 -6.252435
        -32.448994 -24.990086 -4.6129317 -0.1149168 -0.4831314 0.37098646
        -0.084525585 -0.51262856 0.35822248 -0.04823017 -0.5316868 0.35352087
        -0.010660648 -0.5390444 0.35718632 0.023863792 -0.53530216 0.36810064
        0.052248 -0.52249813 0.3841908 0.07296085 -0.5034208 0.40304554
        0.08590698 -0.48088694 0.4224695 0.09198904 -0.45728827 0.44080383
        0.092639446 -0.4343896 0.45702633 0.08939314 -0.413301 0.47066015
        -10.494404 -1.3248798 3.1434479 -10.84341 -1.3598332 3.2281208
        -11.201619 -1.3960091 3.313219 -11.569266 -1.4335413 3.3984115
        -11.94663 -1.472586 3.483324 -12.334039 -1.5133246 3.567533
        -12.731877 -1.5559651 3.6505592 -13.140596 -1.6007465 3.7318614
        -13.560714 -1.6479421 3.810827 -13.992832 -1.6978621 3.8867652
        -14.437635 -1.7508593 3.958894 -14.895899 -1.807332 4.026331
        -15.368492 -1.8677307 4.0880795 -15.85638 -1.9325631 4.143019
        -16.36062 -2.002401 4.1898894 -16.882368 -2.0778894 4.2272806
        -17.42286 -2.159755 4.253619 -17.983408 -2.2488186 4.2671614
        -18.565395 -2.3460112 4.2659836 -19.170242 -2.4523892 4.2479773
        -19.799412 -2.5691605 4.210849 -20.454365 -2.6977105 4.152117
        -21.136555 -2.8396373 4.0691185 -21.847397 -2.996797 3.9590101
        -22.588228 -3.171357 3.818768 -23.360277 -3.365858 3.6452022
        -24.164608 -3.5833025 3.4349372 -25.002039 -3.8272467 3.1844249
        -25.873058 -4.1019206 2.889949 -26.777672 -4.4123755 2.5476434
        -27.71524 -4.7646484 2.1535366 -28.684269 -5.1659737 1.703626
        -29.68214 -5.624999 1.1939881 -30.704805 -6.152031 0.6209164
        -31.74642 -6.7592616 -0.018922105 -32.798824 -7.460907 -0.7283326
        -33.850876 -8.273179 -1.5094414 -34.887478 -9.213921 -2.3634987
        -35.88816 -10.301643 -3.2905107 -36.82526 -11.553719 -4.2884107
        -37.66171 -12.983298 -5.351343 -38.349052 -14.594702 -6.4664764
        -38.826694 -16.377111 -7.6088734 -39.024178 -18.296978 -8.734383
        -38.868576 -20.290358 -9.77153 -38.29869 -22.257446 -10.614777
        -37.28584 -24.062782 -11.123014 -35.857826 -25.544653 -11.12747
        -34.118107 -26.535269 -10.451389 -32.250385 -26.889574 -8.939204
        -30.50079 -26.514797 -6.486608 -1.2262478 -1.4927921 0.16121387
        -0.06351757 -0.56476974 0.28097343 -0.012480736 -0.57453156 0.28568268
        0.03376007 -0.5698261 0.3019023 0.07081509 -0.55360126 0.3261299
        0.09677696 -0.5297308 0.35439873 0.11188889 -0.5020008 0.38324666
        0.11779404 -0.47350073 0.41016003 0.11671638 -0.4463663 0.4336728
        0.11090136 -0.421844 0.45321256 -10.516005 -1.206766 3.129831
        -10.865722 -1.2377701 3.2128613 -11.224762 -1.2698534 3.2961907
        -11.593382 -1.303135 3.379487 -11.971884 -1.3377541 3.4623737
        -12.36062 -1.3738714 3.544426 -12.760008 -1.4116728 3.6251643
        -13.170526 -1.4513713 3.704046 -13.592731 -1.4932108 3.7804587
        -14.027262 -1.537469 3.853709 -14.474844 -1.584462 3.923014
        -14.936297 -1.6345478 3.9874885 -15.412542 -1.6881312 4.046133
        -15.904596 -1.745671 4.097821 -16.413582 -1.8076848 4.141286
        -16.940718 -1.8747588 4.175107 -17.487318 -1.9475564 4.197697
        -18.054783 -2.0268307 4.2072935 -18.644594 -2.1134403 4.2019444
        -19.258291 -2.2083664 4.179506 -19.897476 -2.312737 4.1376333
        -20.563778 -2.427857 4.0737777 -21.258854 -2.5552433 3.985184
        -21.984364 -2.6966724 3.8688824 -22.74194 -2.8542373 3.7216809
        -23.533186 -3.030418 3.5401664 -24.359612 -3.228171 3.320665
        -25.222595 -3.4510412 3.059237 -26.123299 -3.7032962 2.7516515
        -27.062572 -3.9900966 2.393366 -28.040817 -4.3177047 1.9795208
        -29.057806 -4.6937337 1.5049363 -30.11248 -5.1274505 0.96411705
        -31.202648 -5.630104 0.35124657 -32.32461 -6.215277 -0.33985275
        -33.472576 -6.89919 -1.1158161 -34.637756 -7.700865 -1.9838634
        -35.80698 -8.6419735 -2.951912 -36.960594 -9.746105 -4.0284142
        -38.069466 -11.037081 -5.2215405 -39.0913 -12.535826 -6.5370245
        -39.966667 -14.255268 -7.9737644 -40.616287 -16.192894 -9.516388
        -40.94182 -18.320992 -11.124342 -40.833656 -20.575842 -12.71867
        -40.188652 -22.848476 -14.169584 -38.93915 -24.981766 -15.290747
        -37.089172 -26.779408 -15.847775 -34.74698 -28.030775 -15.586486
        -32.13759 -28.549568 -14.279109 -29.581203 -28.21633 -11.775822
        -27.435911 -27.008656 -8.040722 -0.083729744 -0.58921814 0.18624687
        -0.015286446 -0.60248566 0.19206429 0.045850754 -0.59746933 0.21558571
        0.0935688 -0.57821655 0.25110292 0.12561512 -0.5499048 0.29230547
        0.14285183 -0.5174103 0.33386207 0.14798355 -0.48453712 0.3721156
        0.14437294 -0.45378828 0.40508255 0.13515759 -0.42648315 0.4321236
        -10.528879 -1.0829117 3.113729 -10.879054 -1.1097971 3.1952524
        -11.238655 -1.1376154 3.276972 -11.607958 -1.1664704 3.3585546
        -11.987287 -1.1964829 3.4396243 -12.377018 -1.2277936 3.5197563
        -12.777594 -1.2605641 3.5984714 -13.189521 -1.2949806 3.675228
        -13.613388 -1.3312564 3.7494147 -14.049868 -1.3696347 3.820339
        -14.499723 -1.4103924 3.8872185 -14.963817 -1.453844 3.949168
        -15.44311 -1.5003462 4.005188 -15.938677 -1.5503037 4.0541496
        -16.45169 -1.6041745 4.094782 -16.983433 -1.6624792 4.1256576
        -17.535294 -1.7258089 4.1451807 -18.108751 -1.7948382 4.151573
        -18.705385 -1.8703387 4.1428623 -19.32685 -1.953198 4.1168723
        -19.974882 -2.0444417 4.0712147 -20.651276 -2.1452646 4.003281
        -21.35789 -2.2570648 3.9102297 -22.096624 -2.381491 3.7889762
        -22.86942 -2.5205014 3.636169 -23.678251 -2.6764338 3.4481816
        -24.525093 -2.8521028 3.2210531 -25.411901 -3.050912 2.9504611
        -26.34056 -3.2770033 2.6316626 -27.312832 -3.5354404 2.2594352
        -28.330256 -3.8324447 1.828007 -29.394026 -4.175679 1.3309665
        -30.504862 -4.574607 0.7611483 -31.662748 -5.0408993 0.11044699
        -32.866592 -5.588904 -0.6304563 -34.11359 -6.2360973 -1.4724927
        -35.39818 -7.0034733 -2.4287314 -36.710255 -7.9156523 -3.5148969
        -38.032368 -9.000473 -4.7496195 -39.33559 -10.287631 -6.1538544
        -40.573997 -11.80575 -7.748497 -41.6783 -13.577168 -9.54895
        -42.550213 -15.609681 -11.55516 -43.060646 -17.88493 -13.736151
        -43.056465 -20.344278 -16.009903 -42.38132 -22.87505 -18.222149
        -40.91399 -25.30311 -20.133045 -38.620964 -27.39989 -21.423817
        -35.608604 -28.910664 -21.73452 -32.149742 -29.60376 -20.733778
        -28.659761 -29.328215 -18.202286 -25.616096 -28.056944 -14.095362
        -23.445446 -25.894392 -8.551643 -0.020258904 -0.6137905 0.076312065
        0.05916214 -0.6100216 0.10913563 0.11961365 -0.5893097 0.15930748
        0.15852451 -0.55816174 0.21720123 0.17774105 -0.52254486 0.27493024
        0.18150616 -0.48693514 0.32733142 0.17457008 -0.45409155 0.37187248
        0.16121101 -0.4253707 0.40792346 -10.535294 -0.95380956 3.0962818
        -10.885738 -0.9764242 3.1764567 -11.245697 -0.99982256 3.2567453
        -11.615462 -1.0240924 3.3368158 -11.995377 -1.0493362 3.4162927
        -12.385837 -1.0756724 3.4947526 -12.787306 -1.1032386 3.571718
        -13.200318 -1.1321925 3.6466491 -13.625487 -1.1627152 3.7189367
        -14.063517 -1.1950135 3.7878902 -14.515203 -1.2293231 3.8527296
        -14.981443 -1.265912 3.9125714 -15.46324 -1.3050852 3.9664166
        -15.961711 -1.3471888 4.0131373 -16.47808 -1.3926158 4.0514603
        -17.013689 -1.4418142 4.0799556 -17.569986 -1.4952942 4.09702
        -18.148533 -1.5536401 4.1008644 -18.750992 -1.6175231 4.0894985
        -19.379126 -1.6877184 4.0607214 -20.034796 -1.7651274 4.012107
        -20.719955 -1.8508034 3.9409924 -21.436646 -1.9459877 3.8444614
        -22.187008 -2.0521522 3.7193246 -22.973269 -2.1710572 3.5620852
        -23.79777 -2.304817 3.3689196 -24.662937 -2.4559958 3.135599
        -25.571302 -2.627721 2.8574395 -26.525476 -2.8238292 2.5292115
        -27.52814 -3.0490544 2.1450331 -28.582003 -3.3092725 1.6982384
        -29.689766 -3.6118035 1.1811892 -30.854033 -3.9657927 0.5850289
        -32.077168 -4.3826756 -0.10069627 -33.360977 -4.8767157 -0.88857734
        -34.70614 -5.4655943 -1.7941096 -36.11102 -6.17097 -2.836669
        -37.569622 -7.018874 -4.0405927 -39.06814 -8.039658 -5.4360332
        -40.579685 -9.267089 -7.0588655 -42.056885 -10.735894 -8.948452
        -43.422684 -12.476844 -11.141455 -44.56102 -14.508328 -13.659433
        -45.311024 -16.823608 -16.488373 -45.47116 -19.37396 -19.549736
        -44.821728 -22.05059 -22.667595 -43.172966 -24.671946 -25.542994
        -40.437557 -26.986889 -27.754717 -36.70957 -28.704384 -28.806673
        -32.312866 -29.551764 -28.227922 -27.777885 -29.347288 -25.700817
        -23.732204 -28.057331 -21.163008 -20.739101 -25.808321 -14.827206
        -12.017756 -14.543421 -4.473089 0.07142639 -0.59747887 -0.012849808
        0.14650536 -0.57849693 0.054693222 0.1930294 -0.54787636 0.13239193
        0.21420956 -0.5124216 0.20912027 0.2161541 -0.4770651 0.27792454
        0.20540047 -0.44472933 0.33565068 0.18745518 -0.41676354 0.38180172
        -10.537343 -0.82011086 3.0790343 -10.887928 -0.83832175 3.1580484
        -11.2481 -0.85716444 3.2371135 -11.618164 -0.8767098 3.3158982
        -11.998478 -0.89704096 3.3940282 -12.389459 -0.91825444 3.471083
        -12.791584 -0.9404617 3.546586 -13.205412 -0.9637913 3.6200008
        -13.631577 -0.9883904 3.69072 -14.070807 -1.0144275 3.7580569
        -14.52393 -1.0420951 3.8212328 -14.991869 -1.0716119 3.8793678
        -15.475666 -1.1032274 3.9314644 -15.976473 -1.1372252 3.9763958
        -16.495558 -1.1739278 4.0128894 -17.034313 -1.2137041 4.0395126
        -17.59424 -1.2569749 4.054659 -18.17697 -1.3042237 4.056529
        -18.78424 -1.3560076 4.0431204 -19.417912 -1.4129726 4.012212
        -20.079956 -1.4758723 3.9613442 -20.772457 -1.5455915 3.88781
        -21.49764 -1.6231773 3.788628 -22.257849 -1.7098776 3.6605172
        -23.055576 -1.8071923 3.499854 -23.893496 -1.9169308 3.302641
        -24.774454 -2.041304 3.0644116 -25.701513 -2.183022 2.7801561
        -26.677973 -2.3454335 2.4442034 -27.707388 -2.5327027 2.0500684
        -28.793602 -2.7500377 1.5902525 -29.940767 -3.0039856 1.0559702
        -31.153362 -3.3028076 0.43675658 -32.43614 -3.656945 -0.280103
        -33.793903 -4.0795813 -1.1103935 -35.231 -4.5872893 -2.074125
        -36.750122 -5.2007027 -3.1970162 -38.35005 -5.945113 -4.51223
        -40.021763 -6.850751 -6.0619936 -41.742073 -7.952355 -7.8982687
        -43.464424 -9.287353 -10.081011 -45.106735 -10.891689 -12.671684
        -46.537903 -12.791997 -15.718838 -47.566826 -14.992853 -19.232456
        -47.942257 -17.45882 -23.145363 -47.375057 -20.093431 -27.265697
        -45.59522 -22.72186 -31.23457 -42.446533 -25.089447 -34.51615
        -37.998356 -26.889519 -36.452717 -32.62396 -27.826206 -36.400375
        -26.98257 -27.697567 -33.914726 -21.87669 -26.46394 -28.90596
        -18.030155 -24.263996 -21.674759 -15.890614 -21.367529 -12.800765
        0.07883835 -0.55041504 -0.13922119 0.1700077 -0.5380602 -0.053733826
        0.22487068 -0.5131464 0.044927597 0.24828911 -0.4827752 0.14174318
        0.24852753 -0.452003 0.22774768 0.23401546 -0.4237771 0.29915512
        0.21161842 -0.39944053 0.35565984 -10.536844 -0.6826067 3.063636
        -10.887487 -0.696303 3.1417089 -11.247773 -0.7104758 3.2197862
        -11.61802 -0.7251793 3.2975378 -11.998597 -0.7404766 3.3745916
        -12.389931 -0.7564409 3.4505277 -12.792521 -0.7731573 3.5248728
        -13.206936 -0.79072344 3.5970924 -13.633831 -0.80925155 3.6665814
        -14.073956 -0.8288704 3.7326562 -14.528154 -0.84972644 3.794541
        -14.997382 -0.8719871 3.8513577 -15.482703 -0.895843 3.902112
        -15.985301 -0.92151135 3.945678 -16.506481 -0.94923997 3.9807844
        -17.04767 -0.9793118 4.0059977 -17.610424 -1.0120512 4.0197077
        -18.196423 -1.047831 4.0201097 -18.807468 -1.0870826 4.0051913
        -19.4455 -1.130307 3.972713 -20.11258 -1.1780903 3.9201932
        -20.810911 -1.231123 3.8448856 -21.54286 -1.2902254 3.7437572
        -22.310946 -1.3563786 3.6134474 -23.11789 -1.430762 3.450241
        -23.96664 -1.5148124 3.2499843 -24.86041 -1.6102859 3.0080156
        -25.802723 -1.7193475 2.7190533 -26.797464 -1.8446859 2.377051
        -27.848959 -1.9896626 1.9750112 -28.96205 -2.1585078 1.504719
        -30.142189 -2.356574 0.95639145 -31.39555 -2.5906668 0.31815305
        -32.72907 -2.8694558 -0.42471316 -34.15035 -3.2039933 -1.2908549
        -35.667217 -3.6083193 -2.3043666 -37.286613 -4.1001377 -3.4967992
        -39.01221 -4.70148 -4.909559 -40.840187 -5.439176 -6.59635
        -42.752064 -6.344818 -8.624782 -44.70387 -7.4536047 -11.07541
        -46.61129 -8.80119 -14.035394 -48.331863 -10.417202 -17.58269
        -49.648518 -12.314015 -21.755669 -50.263847 -14.469946 -26.505018
        -49.82026 -16.808245 -31.630444 -47.964058 -19.177902 -36.7187
        -44.461773 -21.348087 -41.11859 -39.34762 -23.031124 -44.000687
        -33.0373 -23.94179 -44.529926 -26.32017 -23.88095 -42.117157
        -20.182314 -22.806955 -36.63735 -15.517494 -20.853731 -28.485783
        -12.868704 -18.283083 -18.42844 -4.1185074 -5.5159297 -2.6463509
        0.18431854 -0.4640646 -0.1516819 0.24829483 -0.45115566 -0.034460068
        0.27479172 -0.4317851 0.0805645 0.2742653 -0.41070414 0.18222427
        0.25695133 -0.39072752 0.26607084 0.23102188 -0.3732021 0.3319674
        -10.535261 -0.5421903 3.0515952 -10.885916 -0.55128574 3.1289744
        -11.246254 -0.56070006 3.2063265 -11.616601 -0.5704698 3.2833223
        -11.997335 -0.5806377 3.359591 -12.388895 -0.5912534 3.434714
        -12.791787 -0.6023742 3.5082204 -13.206594 -0.61406636 3.579577
        -13.633986 -0.62640584 3.6481814 -14.074722 -0.6394797 3.7133517
        -14.529667 -0.6533875 3.7743149 -14.99979 -0.6682426 3.8301947
        -15.486179 -0.6841746 3.8799987 -15.99004 -0.701331 3.922603
        -16.512701 -0.7198806 3.956736 -17.05562 -0.740016 3.9809651
        -17.620388 -0.7619586 3.9936774 -18.208723 -0.78596324 3.993065
        -18.822475 -0.812325 3.977107 -19.463644 -0.8413875 3.9435527
        -20.134357 -0.8735533 3.8899016 -20.836914 -0.9092979 3.8133812
        -21.573772 -0.9491863 3.7109184 -22.347595 -0.993898 3.579098
        -23.161274 -1.0442481 3.4141264 -24.017975 -1.1012349 3.2117417
        -24.921175 -1.1660802 2.9671328 -25.874756 -1.2402955 2.6748126
        -26.883066 -1.3257623 2.3284512 -27.951027 -1.4248416 1.9206567
        -29.084263 -1.540515 1.4426651 -30.289257 -1.6765709 0.88391906
        -31.573528 -1.837848 0.23144586 -32.94577 -2.0305433 -0.53104776
        -34.415867 -2.262604 -1.4244751 -35.994537 -2.5442 -2.4762063
        -37.6923 -2.8882613 -3.722497 -39.517086 -3.3110447 -5.211499
        -41.469795 -3.8326082 -7.0064507 -43.53657 -4.476962 -9.188169
        -45.676765 -5.2714686 -11.854993 -47.805832 -6.2448225 -15.116821
        -49.77391 -7.422487 -19.078552 -51.344368 -8.818439 -23.806118
        -52.18242 -10.422116 -29.270227 -51.872208 -12.181374 -35.26882
        -49.98536 -13.985689 -41.346016 -46.21569 -15.659402 -46.75077
        -40.559124 -16.977478 -50.497444 -33.46262 -17.711414 -51.571804
        -25.82906 -17.698172 -49.244972 -18.810192 -16.901567 -43.35513
        -13.454237 -15.428391 -34.384808 -10.389452 -13.488694 -23.27407
        -9.702629 -11.324115 -11.078169 0.1833973 -0.35980654 -0.22186089
        0.25714493 -0.3645687 -0.09296131 0.28824425 -0.3616848 0.034596443
        0.28881836 -0.3550048 0.14751434 0.27065468 -0.3470521 0.24050951
        0.24297619 -0.33923912 0.31342334 -10.533661 -0.39981684 3.0440989
        -10.884306 -0.40425268 3.1210542 -11.244658 -0.40884787 3.1979642
        -11.615049 -0.4136212 3.2745001 -11.995861 -0.41859433 3.3502917
        -12.387539 -0.42379272 3.4249225 -12.790595 -0.42924565 3.4979212
        -13.20562 -0.43498707 3.5687568 -13.63329 -0.4410558 3.6368287
        -14.074375 -0.44749638 3.701455 -14.52975 -0.4543599 3.7618656
        -15.000395 -0.46170443 3.8171847 -15.487408 -0.46959642 3.8664217
        -15.992006 -0.47811174 3.9084532 -16.51554 -0.48733693 3.9420087
        -17.059483 -0.49737117 3.9656549 -17.625443 -0.50832826 3.9777784
        -18.215166 -0.5203395 3.9765682 -18.830536 -0.5335569 3.9599996
        -19.473576 -0.5481575 3.9258146 -20.146467 -0.56434894 3.8715007
        -20.851555 -0.58237636 3.7942696 -21.59137 -0.6025314 3.6910243
        -22.368654 -0.625165 3.5583146 -23.186407 -0.65069646 3.3923004
        -24.04792 -0.6796405 3.1886518 -24.956856 -0.7126273 2.942467
        -25.917307 -0.75043464 2.6481292 -26.933912 -0.79403174 2.2991345
        -28.011974 -0.844633 1.8878419 -29.157608 -0.90377325 1.405147
        -30.377958 -0.9734012 0.8400051 -31.681404 -1.0560064 0.17874722
        -33.077778 -1.1547819 -0.5959171 -34.57844 -1.2738245 -1.5063493
        -36.196022 -1.4183872 -2.5820174 -37.94341 -1.5951695 -3.8622298
        -39.831432 -1.8126274 -5.3995314 -41.86427 -2.0812573 -7.2634325
        -44.031418 -2.4137228 -9.54356 -46.29493 -2.8246398 -12.350239
        -48.570847 -3.3296337 -15.809023 -50.705406 -3.9430623 -20.043718
        -52.450035 -4.6737943 -25.14031 -53.445965 -5.518246 -31.085327
        -53.23832 -6.450944 -37.678265 -51.347103 -7.4148426 -44.43673
        -47.413918 -8.316949 -50.54221 -41.40482 -9.036392 -54.89978
        -33.784878 -9.4470215 -56.36644 -25.534277 -9.456391 -54.110897
        -17.920471 -9.042486 -47.94254 -12.100317 -8.262934 -38.405617
        -8.761732 -7.232478 -26.564693 -7.98925 -6.0830994 -13.610485
        0.16318893 -0.23753285 -0.24879074 0.24687004 -0.2627318 -0.1190691
        0.28437614 -0.2794373 0.011978149 0.28863525 -0.29002357 0.12912703
        0.27232552 -0.2964679 0.22611523 0.24539089 -0.30022138 0.30239904
        -10.532691 -0.25647274 3.0418985 -10.883321 -0.25621977 3.1187139
        -11.243665 -0.25596577 3.1954777 -11.614057 -0.2557112 3.2718618
        -11.99488 -0.25545692 3.3474958 -12.386581 -0.25520366 3.4219635
        -12.789676 -0.25495252 3.4947944 -13.204756 -0.25470456 3.5654573
        -13.632501 -0.25446117 3.633352 -14.073684 -0.25422388 3.6977983
        -14.529181 -0.25399455 3.758025 -14.999977 -0.2537752 3.8131578
        -15.487173 -0.2535683 3.8622057 -15.991996 -0.25337654 3.9040458
        -16.515793 -0.2532033 3.9374087 -17.060047 -0.25305203 3.9608603
        -17.626375 -0.252927 3.9727862 -18.216528 -0.25283295 3.971375
        -18.832396 -0.25277528 3.954601 -19.47602 -0.25275987 3.9202027
        -20.149595 -0.25279358 3.8656654 -20.855478 -0.25288358 3.7881944
        -21.596228 -0.2530378 3.6846843 -22.374607 -0.25326616 3.551674
        -23.193653 -0.25357443 3.3853085 -24.056702 -0.25397202 3.1812353
        -24.967466 -0.25446588 2.9345222 -25.930117 -0.25506046 2.6395113
        -26.949389 -0.2557565 2.2896407 -28.0307 -0.2565468 1.8771899
        -29.180338 -0.2574143 1.3929427 -30.405659 -0.25832412 0.82569516
        -31.715328 -0.2592162 0.16155368 -33.119556 -0.25999293 -0.61710006
        -34.630203 -0.26050436 -1.533102 -36.260525 -0.26052538 -2.6166072
        -38.024208 -0.2597292 -3.9079251 -39.93307 -0.2576606 -5.461053
        -41.992386 -0.25369987 -7.347578 -44.192837 -0.24705058 -9.660059
        -46.497444 -0.23675606 -12.512842 -48.822563 -0.22178671 -16.03676
        -51.013306 -0.20119004 -20.362091 -52.817352 -0.17445736 -25.581793
        -53.868088 -0.14192444 -31.688093 -53.697746 -0.10524198 -38.48166
        -51.808784 -0.0677523 -45.47184 -47.82443 -0.034837633 -51.81794
        -41.69972 -0.014418185 -56.387966 -33.90546 -0.010923624 -57.994183
        -25.447205 -0.024936378 -55.76906 -17.631397 -0.054612964 -49.510674
        -11.65237 -0.09483135 -39.783577 -8.219208 -0.13810596 -27.694714
        -7.4164047 -0.17731105 -14.481487 0.12376785 -0.1164501 -0.22458076
        0.216465 -0.16022372 -0.10648537 0.26181602 -0.19575527 0.017331123
        0.2723465 -0.22344889 0.13031816 0.26078415 -0.24441105 0.22511959
        0.23732185 -0.25995263 0.3003831 -10.53257 -0.11315639 3.0452511
        -10.883183 -0.10821597 3.1222155 -11.243501 -0.10311402 3.1991339
        -11.613855 -0.09783311 3.2756774 -11.994628 -0.092352904 3.3514767
        -12.386264 -0.086649746 3.426114 -12.789275 -0.08069624 3.4991188
        -13.204253 -0.074460864 3.5699599 -13.631873 -0.06790738 3.6380355
        -14.072905 -0.06099441 3.7026653 -14.52822 -0.053674582 3.7630777
        -14.998801 -0.045893908 3.8183975 -15.485746 -0.03759081 3.8676336
        -15.990273 -0.0286951 3.9096622 -16.513725 -0.019126553 3.9432132
        -17.057583 -0.008793371 3.9668531 -17.623446 0.0024098568 3.9789677
        -18.213062 0.01460488 3.9777465 -18.828316 0.027932934 3.9611642
        -19.47123 0.04255897 3.9269633 -20.143976 0.05867716 3.8726313
        -20.848906 0.076517925 3.7953799 -21.588541 0.09635663 3.692113
        -22.365623 0.1185246 3.559381 -23.183144 0.14342886 3.393345
        -24.044392 0.17156513 3.1896787 -24.953018 0.2035484 2.943482
        -25.91311 0.24014705 2.649145 -26.929295 0.28232703 2.3001692
        -28.006853 0.33131474 1.8889282 -29.15188 0.38867587 1.406333
        -30.371496 0.4564249 0.84136176 -31.674034 0.5371641 0.18038529
        -33.069286 0.6342698 -0.5938364 -34.56854 0.75212395 -1.5035844
        -36.18433 0.89640605 -2.5782135 -37.929436 1.0744311 -3.8568592
        -39.814537 1.2955171 -5.391818 -41.843628 1.5713181 -7.25224
        -44.006016 1.9159839 -9.527237 -46.263565 2.3458962 -12.32642
        -48.5323 2.8785522 -15.774426 -50.65861 3.5299926 -19.993895
        -52.394688 4.3098946 -25.069654 -53.38325 5.213865 -30.987387
        -53.171886 6.2131796 -37.546833 -51.283607 7.2444487 -44.267876
        -47.362446 8.20461 -50.337135 -41.37549 8.959623 -54.667046
        -33.786453 9.375233 -56.121944 -25.569195 9.358025 -53.87516
        -17.983063 8.889736 -47.73511 -12.179262 8.037312 -38.239254
        -8.844608 6.9288583 -26.442818 -8.066423 5.7090216 -13.528612
        0.070230484 -0.016981125 -0.15262985 0.1694107 -0.0728569 -0.05675888
        0.22282791 -0.12238955 0.05012226 0.24136734 -0.16375923 0.15104532
        0.23690033 -0.19688463 0.23765016 0.2192812 -0.22263849 0.3075869
        -10.533083 0.029133955 3.0539005 -10.883673 0.038730107 3.131297
        -11.243942 0.048647083 3.208666 -11.614216 0.058920115 3.2856777
        -11.994873 0.0695904 3.3619614 -12.38635 0.08070588 3.437098
        -12.789153 0.09232191 3.5106168 -13.203866 0.10450236 3.5819836
        -13.631157 0.1173205 3.6505966 -14.071785 0.13086018 3.7157733
        -14.526613 0.1452172 3.7767403 -14.996614 0.16050088 3.8326216
        -15.482866 0.1768357 3.8824239 -15.98658 0.19436367 3.9250228
        -16.509083 0.21324688 3.9591475 -17.051828 0.23367071 3.9833636
        -17.616407 0.25584787 3.9960592 -18.204535 0.28002363 3.9954247
        -18.81806 0.30648205 3.9794405 -19.458971 0.33555433 3.9458544
        -20.129404 0.3676293 3.8921676 -20.831644 0.4031671 3.8156073
        -21.568148 0.44271654 3.7131014 -22.341572 0.4869361 3.5812361
        -23.154795 0.5366279 3.4162223 -24.010971 0.5927691 3.2138007
        -24.913567 0.6565652 2.9691682 -25.866447 0.72951424 2.6768467
        -26.87393 0.81349105 2.3305225 -27.940905 0.9108612 1.9228231
        -29.072962 1.0246292 1.4450196 -30.276527 1.1586347 0.88660026
        -31.559048 1.3178077 0.23466168 -32.929123 1.5085003 -0.52698815
        -34.396515 1.7388996 -1.4191171 -35.97177 2.0195324 -2.4688728
        -37.6652 2.3638468 -3.7122006 -39.484474 2.7888172 -5.196792
        -41.430172 3.3154488 -6.985224 -43.488113 3.9689393 -9.157386
        -45.61737 4.7780266 -11.810335 -47.73336 5.7727795 -15.052359
        -49.68667 6.979774 -18.986353 -51.242043 8.413264 -23.676306
        -52.067524 10.061605 -29.091694 -51.75155 11.869593 -35.031116
        -49.871086 13.721421 -41.042976 -46.12446 15.433884 -46.38507
        -40.50923 16.773716 -50.084522 -33.46838 17.507385 -51.1397
        -25.894007 17.471687 -48.82934 -18.924286 16.633883 -42.989445
        -13.597733 15.107619 -34.090946 -10.540588 13.112222 -23.057991
        -9.8441925 10.897994 -10.932375 0.011327744 0.04617691 -0.046855927
        0.11289406 -0.012742996 0.020990372 0.17289352 -0.068775654 0.10465717
        0.19970894 -0.1180284 0.18785381 0.20349121 -0.15905762 0.26172185
        0.19321823 -0.19198966 0.3228714 -10.533587 0.16941224 3.0670938
        -10.884131 0.18360294 3.1451936 -11.244315 0.19827168 3.223296
        -11.614452 0.21347119 3.301072 -11.994913 0.22926308 3.378148
        -12.386125 0.24571902 3.4541051 -12.788582 0.2629218 3.5284684
        -13.202858 0.28096688 3.6007042 -13.629604 0.29996365 3.6702065
        -14.069569 0.32003742 3.7362912 -14.523595 0.34133115 3.7981822
        -14.992637 0.36400777 3.855002 -15.477757 0.38825303 3.9057539
        -15.980139 0.4142783 3.949313 -16.501083 0.4423247 3.984407
        -17.042017 0.4726676 4.0096016 -17.60449 0.5056226 4.0232873
        -18.19018 0.54155284 4.023658 -18.800888 0.58087814 4.008701
        -19.438545 0.6240868 3.976177 -20.10521 0.67175066 3.923604
        -20.803078 0.72454464 3.8482382 -21.534508 0.7832707 3.747046
        -22.302006 0.8488898 3.6166706 -23.108282 0.92256474 3.4534006
        -23.956272 1.0057098 3.253088 -24.849163 1.100061 3.011081
        -25.790453 1.2077658 2.722113 -26.783997 1.3314992 2.3801575