# vtk DataFile Version 3.0
T01 + IGRF magnetic field in GSW coordinates
ASCII
DATASET STRUCTURED_GRID
DIMENSIONS     61    21    21
POINTS    26901 float
     -50.000000     -10.000000     -10.000000
     -49.000000     -10.000000     -10.000000
     -48.000000     -10.000000     -10.000000
     -47.000000     -10.000000     -10.000000
     -46.000000     -10.000000     -10.000000
     -45.000000     -10.000000     -10.000000
     -44.000000     -10.000000     -10.000000
     -43.000000     -10.000000     -10.000000
     -42.000000     -10.000000     -10.000000
     -41.000000     -10.000000     -10.000000
     -40.000000     -10.000000     -10.000000
     -39.000000     -10.000000     -10.000000
     -38.000000     -10.000000     -10.000000
     -37.000000     -10.000000     -10.000000
     -36.000000     -10.000000     -10.000000
     -35.000000     -10.000000     -10.000000
     -34.000000     -10.000000     -10.000000
     -33.000000     -10.000000     -10.000000
     -32.000000     -10.000000     -10.000000
     -31.000000     -10.000000     -10.000000
     -30.000000     -10.000000     -10.000000
     -29.000000     -10.000000     -10.000000
     -28.000000     -10.000000     -10.000000
     -27.000000     -10.000000     -10.000000
     -26.000000     -10.000000     -10.000000
     -25.000000     -10.000000     -10.000000
     -24.000000     -10.000000     -10.000000
     -23.000000     -10.000000     -10.000000
     -22.000000     -10.000000     -10.000000
     -21.000000     -10.000000     -10.000000
     -20.000000     -10.000000     -10.000000
     -19.000000     -10.000000     -10.000000
     -18.000000     -10.000000     -10.000000
     -17.000000     -10.000000     -10.000000
     -16.000000     -10.000000     -10.000000
     -15.000000     -10.000000     -10.000000
     -14.000000     -10.000000     -10.000000
     -13.000000     -10.000000     -10.000000
     -12.000000     -10.000000     -10.000000
     -11.000000     -10.000000     -10.000000
     -10.000000     -10.000000     -10.000000
      -9.000000     -10.000000     -10.000000
      -8.000000     -10.000000     -10.000000
      -7.000000     -10.000000     -10.000000
      -6.000000     -10.000000     -10.000000
      -5.000000     -10.000000     -10.000000
      -4.000000     -10.000000     -10.000000
      -3.000000     -10.000000     -10.000000
      -2.000000     -10.000000     -10.000000
      -1.000000     -10.000000     -10.000000
       0.000000     -10.000000     -10.000000
       1.000000     -10.000000     -10.000000
       2.000000     -10.000000     -10.000000
       3.000000     -10.000000     -10.000000
       4.000000     -10.000000     -10.000000
       5.000000     -10.000000     -10.000000
       6.000000     -10.000000     -10.000000
       7.000000     -10.000000     -10.000000
       8.000000     -10.000000     -10.000000
       9.000000     -10.000000     -10.000000
      10.000000     -10.000000     -10.000000
     -50.000000      -9.000000     -10.000000
     -49.000000      -9.000000     -10.000000
     -48.000000      -9.000000     -10.000000
     -47.000000      -9.000000     -10.000000
     -46.000000      -9.000000     -10.000000
     -45.000000      -9.000000     -10.000000
     -44.000000      -9.000000     -10.000000
     -43.000000      -9.000000     -10.000000
     -42.000000      -9.000000     -10.000000
     -41.000000      -9.000000     -10.000000
     -40.000000      -9.000000     -10.000000
     -39.000000      -9.000000     -10.000000
     -38.000000      -9.000000     -10.000000
     -37.000000      -9.000000     -10.000000
     -36.000000      -9.000000     -10.000000
     -35.000000      -9.000000     -10.000000
     -34.000000      -9.000000     -10.000000
     -33.000000      -9.000000     -10.000000
     -32.000000      -9.000000     -10.000000
     -31.000000      -9.000000     -10.000000
     -30.000000      -9.000000     -10.000000
     -29.000000      -9.000000     -10.000000
     -28.000000      -9.000000     -10.000000
     -27.000000      -9.000000     -10.000000
     -26.000000      -9.000000     -10.000000
     -25.000000      -9.000000     -10.000000
     -24.000000      -9.000000     -10.000000
     -23.000000      -9.000000     -10.000000
     -22.000000      -9.000000     -10.000000
     -21.000000      -9.000000     -10.000000
     -20.000000      -9.000000     -10.000000
     -19.000000      -9.000000     -10.000000
     -18.000000      -9.000000     -10.000000
     -17.000000      -9.000000     -10.000000
     -16.000000      -9.000000     -10.000000
     -15.000000      -9.000000     -10.000000
     -14.000000      -9.000000     -10.000000
     -13.000000      -9.000000     -10.000000
     -12.000000      -9.000000     -10.000000
     -11.000000      -9.000000     -10.000000
     -10.000000      -9.000000     -10.000000
      -9.000000      -9.000000     -10.000000
      -8.000000      -9.000000     -10.000000
      -7.000000      -9.000000     -10.000000
      -6.000000      -9.000000     -10.000000
      -5.000000      -9.000000     -10.000000
      -4.000000      -9.000000     -10.000000
      -3.000000      -9.000000     -10.000000
      -2.000000      -9.000000     -10.000000
      -1.000000      -9.000000     -10.000000
       0.000000      -9.000000     -10.000000
       1.000000      -9.000000     -10.000000
       2.000000      -9.000000     -10.000000
       3.000000      -9.000000     -10.000000
       4.000000      -9.000000     -10.000000
       5.000000      -9.000000     -10.000000
       6.000000      -9.000000     -10.000000
       7.000000      -9.000000     -10.000000
       8.000000      -9.000000     -10.000000
       9.000000      -9.000000     -10.000000
      10.000000      -9.000000     -10.000000
     -50.000000      -8.000000     -10.000000
     -49.000000      -8.000000     -10.000000
     -48.000000      -8.000000     -10.000000
     -47.000000      -8.000000     -10.000000
     -46.000000      -8.000000     -10.000000
     -45.000000      -8.000000     -10.000000
     -44.000000      -8.000000     -10.000000
     -43.000000      -8.000000     -10.000000
     -42.000000      -8.000000     -10.000000
     -41.000000      -8.000000     -10.000000
     -40.000000      -8.000000     -10.000000
     -39.000000      -8.000000     -10.000000
     -38.000000      -8.000000     -10.000000
     -37.000000      -8.000000     -10.000000
     -36.000000      -8.000000     -10.000000
     -35.000000      -8.000000     -10.000000
     -34.000000      -8.000000     -10.000000
     -33.000000      -8.000000     -10.000000
     -32.000000      -8.000000     -10.000000
     -31.000000      -8.000000     -10.000000
     -30.000000      -8.000000     -10.000000
     -29.000000      -8.000000     -10.000000
     -28.000000      -8.000000     -10.000000
     -27.000000      -8.000000     -10.000000
     -26.000000      -8.000000     -10.000000
     -25.000000      -8.000000     -10.000000
     -24.000000      -8.000000     -10.000000
     -23.000000      -8.000000     -10.000000
     -22.000000      -8.000000     -10.000000
     -21.000000      -8.000000     -10.000000
     -20.000000      -8.000000     -10.000000
     -19.000000      -8.000000     -10.000000
     -18.000000      -8.000000     -10.000000
     -17.000000      -8.000000     -10.000000
     -16.000000      -8.000000     -10.000000
     -15.000000      -8.000000     -10.000000
     -14.000000      -8.000000     -10.000000
     -13.000000      -8.000000     -10.000000
     -12.000000      -8.000000     -10.000000
     -11.000000      -8.000000     -10.000000
     -10.000000      -8.000000     -10.000000
      -9.000000      -8.000000     -10.000000
      -8.000000      -8.000000     -10.000000
      -7.000000      -8.000000     -10.000000
      -6.000000      -8.000000     -10.000000
      -5.000000      -8.000000     -10.000000
      -4.000000      -8.000000     -10.000000
      -3.000000      -8.000000     -10.000000
      -2.000000      -8.000000     -10.000000
      -1.000000      -8.000000     -10.000000
       0.000000      -8.000000     -10.000000
       1.000000      -8.000000     -10.000000
       2.000000      -8.000000     -10.000000
       3.000000      -8.000000     -10.000000
       4.000000      -8.000000     -10.000000
       5.000000      -8.000000     -10.000000
       6.000000      -8.000000     -10.000000
       7.000000      -8.000000     -10.000000
       8.000000      -8.000000     -10.000000
       9.000000      -8.000000     -10.000000
      10.000000      -8.000000     -10.000000
     -50.000000      -7.000000     -10.000000
     -49.000000      -7.000000     -10.000000
     -48.000000      -7.000000     -10.000000
     -47.000000      -7.000000     -10.000000
     -46.000000      -7.000000     -10.000000
     -45.000000      -7.000000     -10.000000
     -44.000000      -7.000000     -10.000000
     -43.000000      -7.000000     -10.000000
     -42.000000      -7.000000     -10.000000
     -41.000000      -7.000000     -10.000000
     -40.000000      -7.000000     -10.000000
     -39.000000      -7.000000     -10.000000
     -38.000000      -7.000000     -10.000000
     -37.000000      -7.000000     -10.000000
     -36.000000      -7.000000     -10.000000
     -35.000000      -7.000000     -10.000000
     -34.000000      -7.000000     -10.000000
     -33.000000      -7.000000     -10.000000
     -32.000000      -7.000000     -10.000000
     -31.000000      -7.000000     -10.000000
     -30.000000      -7.000000     -10.000000
     -29.000000      -7.000000     -10.000000
     -28.000000      -7.000000     -10.000000
     -27.000000      -7.000000     -10.000000
     -26.000000      -7.000000     -10.000000
     -25.000000      -7.000000     -10.000000
[...]
POINT_DATA    26901
VECTORS B_total float
  -1.0792903E+01  -1.6280373E+00   3.1225765E+00
  -1.1148112E+01  -1.6727370E+00   3.2121830E+00
  -1.1512040E+01  -1.7189102E+00   3.3026247E+00
  -1.1884836E+01  -1.7667121E+00   3.3935568E+00
  -1.2266684E+01  -1.8163233E+00   3.4845858E+00
  -1.2657810E+01  -1.8679533E+00   3.5752637E+00
  -1.3058494E+01  -1.9218429E+00   3.6650822E+00
  -1.3469068E+01  -1.9782683E+00   3.7534647E+00
  -1.3889930E+01  -2.0375435E+00   3.8397593E+00
  -1.4321548E+01  -2.1000254E+00   3.9232299E+00
  -1.4764469E+01  -2.1661170E+00   4.0030456E+00
  -1.5219318E+01  -2.2362711E+00   4.0782714E+00
  -1.5686802E+01  -2.3109970E+00   4.1478562E+00
  -1.6167715E+01  -2.3908639E+00   4.2106237E+00
  -1.6662930E+01  -2.4765074E+00   4.2652602E+00
  -1.7173397E+01  -2.5686371E+00   4.3103051E+00
  -1.7700127E+01  -2.6680439E+00   4.3441434E+00
  -1.8244190E+01  -2.7756093E+00   4.3650012E+00
  -1.8806677E+01  -2.8923187E+00   4.3709426E+00
  -1.9388700E+01  -3.0192747E+00   4.3598752E+00
  -1.9991343E+01  -3.1577160E+00   4.3295536E+00
  -2.0615641E+01  -3.3090377E+00   4.2775970E+00
  -2.1262535E+01  -3.4748228E+00   4.2015066E+00
  -2.1932835E+01  -3.6568692E+00   4.0986872E+00
  -2.2627157E+01  -3.8572354E+00   3.9664781E+00
  -2.3345867E+01  -4.0782828E+00   3.8021784E+00
  -2.4088997E+01  -4.3227348E+00   3.6030965E+00
  -2.4856136E+01  -4.5937362E+00   3.3665779E+00
  -2.5646290E+01  -4.8949256E+00   3.0900774E+00
  -2.6457703E+01  -5.2305079E+00   2.7712450E+00
  -2.7287640E+01  -5.6053476E+00   2.4080589E+00
  -2.8132126E+01  -6.0250473E+00   1.9990211E+00
  -2.8985653E+01  -6.4960222E+00   1.5434290E+00
  -2.9840881E+01  -7.0255623E+00   1.0417331E+00
  -3.0688347E+01  -7.6218200E+00   4.9597311E-01
  -3.1516226E+01  -8.2936935E+00  -8.9728460E-02
  -3.2310127E+01  -9.0505152E+00  -7.0864737E-01
  -3.3052971E+01  -9.9014158E+00  -1.3509432E+00
  -3.3724937E+01  -1.0854250E+01  -2.0031688E+00
  -3.4303497E+01  -1.1913841E+01  -2.6477444E+00
  -3.4763618E+01  -1.3079525E+01  -3.2622972E+00
  -3.5078407E+01  -1.4341845E+01  -3.8186238E+00
  -3.5220577E+01  -1.5678699E+01  -4.2811370E+00
  -3.5165478E+01  -1.7051451E+01  -4.6047373E+00
  -3.4896305E+01  -1.8401978E+01  -4.7325954E+00
  -3.4411736E+01  -1.9652040E+01  -4.5947700E+00
  -3.3735180E+01  -2.0706348E+01  -4.1089787E+00
  -3.2923450E+01  -2.1460297E+01  -3.1845815E+00
  -2.1292854E+01  -1.4598211E+01  -9.9759007E-01
  -9.4373465E-02  -4.4910145E-01   4.2922211E-01
  -7.5108767E-02  -4.7576141E-01   4.2019653E-01
  -5.0079823E-02  -4.9568653E-01   4.1559076E-01
  -2.2119522E-02  -5.0707245E-01   4.1610861E-01
   5.6171417E-03  -5.0941944E-01   4.2157316E-01
   3.0344009E-02  -5.0347710E-01   4.3103659E-01
   5.0160885E-02  -4.9092960E-01   4.4309056E-01
   6.4216137E-02  -4.7390079E-01   4.5621359E-01
   7.2591782E-02  -4.5449400E-01   4.6910366E-01
   7.6012135E-02  -4.3448210E-01   4.8080683E-01
   7.5534821E-02  -4.1517878E-01   4.9077606E-01
   7.2268963E-02  -3.9741111E-01   4.9880743E-01
  -1.0845826E+01  -1.5164694E+00   3.1151116E+00
  -1.1202478E+01  -1.5573543E+00   3.2026918E+00
  -1.1567987E+01  -1.5995655E+00   3.2909126E+00
  -1.1942526E+01  -1.6432434E+00   3.3794234E+00
  -1.2326305E+01  -1.6885517E+00   3.4678230E+00
  -1.2719584E+01  -1.7356801E+00   3.5556574E+00
  -1.3122670E+01  -1.7848481E+00   3.6424103E+00
  -1.3535933E+01  -1.8363072E+00   3.7274992E+00
  -1.3959809E+01  -1.8903443E+00   3.8102643E+00
  -1.4394807E+01  -1.9472857E+00   3.8899605E+00
  -1.4841516E+01  -2.0075009E+00   3.9657483E+00
  -1.5300607E+01  -2.0714073E+00   4.0366821E+00
  -1.5772837E+01  -2.1394742E+00   4.1016989E+00
  -1.6259052E+01  -2.2122285E+00   4.1596084E+00
  -1.6760183E+01  -2.2902629E+00   4.2090802E+00
  -1.7277239E+01  -2.3742402E+00   4.2486348E+00
  -1.7811302E+01  -2.4649045E+00   4.2766333E+00
  -1.8363510E+01  -2.5630915E+00   4.2912726E+00
  -1.8935045E+01  -2.6697426E+00   4.2905822E+00
  -1.9527111E+01  -2.7859194E+00   4.2724223E+00
  -2.0140913E+01  -2.9128284E+00   4.2344904E+00
  -2.0777615E+01  -3.0518425E+00   4.1743293E+00
  -2.1438326E+01  -3.2045360E+00   4.0893397E+00
  -2.2124044E+01  -3.3727226E+00   3.9767962E+00
  -2.2835632E+01  -3.5585036E+00   3.8338637E+00
  -2.3573727E+01  -3.7643254E+00   3.6576171E+00
  -2.4338709E+01  -3.9930506E+00   3.4450738E+00
  -2.5130569E+01  -4.2480388E+00   3.1932063E+00
  -2.5948799E+01  -4.5332427E+00   2.8989954E+00
  -2.6792221E+01  -4.8533225E+00   2.5594923E+00
  -2.7658787E+01  -5.2137794E+00   2.1719222E+00
  -2.8545322E+01  -5.6210928E+00   1.7338307E+00
  -2.9447262E+01  -6.0828762E+00   1.2432926E+00
  -3.0358313E+01  -6.6080132E+00   6.9918007E-01
  -3.1270134E+01  -7.2067518E+00   1.0147437E-01
  -3.2171936E+01  -7.8906770E+00  -5.4837757E-01
  -3.3050056E+01  -8.6724873E+00  -1.2470957E+00
  -3.3887402E+01  -9.5653954E+00  -1.9891610E+00
  -3.4662769E+01  -1.0581985E+01  -2.7663074E+00
  -3.5350052E+01  -1.1732283E+01  -3.5667639E+00
  -3.5917446E+01  -1.3020821E+01  -4.3739538E+00
  -3.6327114E+01  -1.4442556E+01  -5.1643376E+00
  -3.6536041E+01  -1.5977766E+01  -5.9041004E+00
  -3.6499298E+01  -1.7586576E+01  -6.5448561E+00
  -3.6176826E+01  -1.9204102E+01  -7.0190735E+00
  -3.5544453E+01  -2.0738319E+01  -7.2370224E+00
  -3.4608208E+01  -2.2072765E+01  -7.0875049E+00
  -3.3418839E+01  -2.3075970E+01  -6.4446020E+00
  -3.2081173E+01  -2.3617752E+01  -5.1807904E+00
  -3.0752369E+01  -2.3589958E+01  -3.1840787E+00
  -1.0268784E-01  -5.0527573E-01   3.7379980E-01
  -6.8553925E-02  -5.3209305E-01   3.6444330E-01
  -3.0044079E-02  -5.4741287E-01   3.6353636E-01
   8.0156326E-03  -5.5049419E-01   3.7086630E-01
   4.1469574E-02  -5.4251289E-01   3.8483357E-01
   6.7604065E-02  -5.2593422E-01   4.0306997E-01
   8.5377693E-02  -5.0380325E-01   4.2304897E-01
   9.5157623E-02  -4.7902203E-01   4.4264644E-01
   9.8209858E-02  -4.5393610E-01   4.6037933E-01
   9.6191883E-02  -4.3018675E-01   4.7543597E-01
   9.0738773E-02  -4.0873170E-01   4.8755586E-01
  -1.0882609E+01  -1.3981036E+00   3.1053851E+00
  -1.1240215E+01  -1.4349772E+00   3.1910880E+00
  -1.1606798E+01  -1.4730284E+00   3.2772634E+00
  -1.1982553E+01  -1.5123824E+00   3.3635550E+00
  -1.2367717E+01  -1.5531855E+00   3.4495585E+00
  -1.2762573E+01  -1.5956081E+00   3.5348151E+00
  -1.3167463E+01  -1.6398469E+00   3.6188056E+00
  -1.3582787E+01  -1.6861285E+00   3.7009425E+00
  -1.4009016E+01  -1.7347112E+00   3.7805626E+00
  -1.4446696E+01  -1.7858901E+00   3.8569171E+00
  -1.4896456E+01  -1.8399999E+00   3.9291613E+00
  -1.5359013E+01  -1.8974190E+00   3.9963443E+00
  -1.5835168E+01  -1.9585752E+00   4.0573974E+00
  -1.6325817E+01  -2.0239508E+00   4.1111221E+00
  -1.6831949E+01  -2.0940886E+00   4.1561790E+00
  -1.7354630E+01  -2.1696010E+00   4.1910753E+00
  -1.7895008E+01  -2.2511775E+00   4.2141571E+00
  -1.8454300E+01  -2.3395989E+00   4.2236013E+00
  -1.9033773E+01  -2.4357500E+00   4.2174082E+00
  -1.9634733E+01  -2.5406377E+00   4.1934018E+00
  -2.0258501E+01  -2.6554146E+00   4.1492300E+00
  -2.0906393E+01  -2.7814074E+00   4.0823669E+00
  -2.1579691E+01  -2.9201508E+00   3.9901211E+00
  -2.2279610E+01  -3.0734334E+00   3.8696420E+00
  -2.3007261E+01  -3.2433507E+00   3.7179239E+00
  -2.3763626E+01  -3.4323726E+00   3.5318274E+00
  -2.4549458E+01  -3.6434245E+00   3.3080666E+00
  -2.5365225E+01  -3.8799884E+00   3.0432339E+00
  -2.6211010E+01  -4.1462226E+00   2.7338114E+00
  -2.7086344E+01  -4.4471083E+00   2.3762088E+00
  -2.7990044E+01  -4.7886257E+00   1.9668133E+00
  -2.8919992E+01  -5.1779523E+00   1.5020834E+00
  -2.9872883E+01  -5.6236987E+00   9.7866070E-01
  -3.0843887E+01  -6.1361322E+00   3.9351919E-01
  -3.1826292E+01  -6.7273922E+00  -2.5588247E-01
  -3.2810963E+01  -7.4115953E+00  -9.7144341E-01
  -3.3785683E+01  -8.2047529E+00  -1.7542584E+00
  -3.4734097E+01  -9.1242962E+00  -2.6043842E+00
  -3.5634377E+01  -1.0188009E+01  -3.5204022E+00
  -3.6457367E+01  -1.1412029E+01  -4.4984498E+00
  -3.7164562E+01  -1.2807597E+01  -5.5303121E+00
  -3.7706341E+01  -1.4376240E+01  -6.5999470E+00
  -3.8021698E+01  -1.6103373E+01  -7.6781049E+00
  -3.8041164E+01  -1.7950745E+01  -8.7150106E+00
  -3.7694942E+01  -1.9849047E+01  -9.6322756E+00
  -3.6927818E+01  -2.1693193E+01  -1.0316595E+01
  -3.5720184E+01  -2.3343500E+01  -1.0619064E+01
  -3.4111340E+01  -2.4636370E+01  -1.0364373E+01
  -3.2216843E+01  -2.5405598E+01  -9.3717136E+00
  -3.0229977E+01  -2.5511566E+01  -7.4845037E+00
  -2.8400267E+01  -2.4870241E+01  -4.5997581E+00
  -9.3310356E-02  -5.6713486E-01   2.9373169E-01
  -4.0691376E-02  -5.8758354E-01   2.9028702E-01
   1.1137962E-02  -5.9186840E-01   3.0015373E-01
   5.6003571E-02  -5.8168411E-01   3.2069111E-01
   9.0091705E-02  -5.6057358E-01   3.4795380E-01
   1.1221981E-01  -5.3275681E-01   3.7782812E-01
   1.2326431E-01  -5.0210762E-01   4.0696859E-01
   1.2534714E-01  -4.7164869E-01   4.3312711E-01
   1.2097073E-01  -4.4333744E-01   4.5516270E-01
   1.1249304E-01  -4.1823196E-01   4.7279704E-01
  -1.0905967E+01  -1.2730482E+00   3.0923076E+00
  -1.1264141E+01  -1.3057346E+00   3.1762583E+00
  -1.1631396E+01  -1.3394499E+00   3.2605393E+00
  -1.2007947E+01  -1.3743043E+00   3.3447912E+00
  -1.2394055E+01  -1.4104269E+00   3.4286082E+00
  -1.2790028E+01  -1.4479679E+00   3.5115302E+00
  -1.3196232E+01  -1.4871017E+00   3.5930357E+00
  -1.3613098E+01  -1.5280282E+00   3.6725376E+00
  -1.4041130E+01  -1.5709774E+00   3.7493715E+00
  -1.4480908E+01  -1.6162118E+00   3.8227875E+00
  -1.4933100E+01  -1.6640291E+00   3.8919408E+00
  -1.5398458E+01  -1.7147679E+00   3.9558794E+00
  -1.5877831E+01  -1.7688117E+00   4.0135331E+00
  -1.6372162E+01  -1.8265936E+00   4.0637002E+00
  -1.6882488E+01  -1.8886039E+00   4.1050382E+00
  -1.7409939E+01  -1.9553976E+00   4.1360474E+00
  -1.7955723E+01  -2.0276034E+00   4.1550651E+00
  -1.8521133E+01  -2.1059363E+00   4.1602540E+00
  -1.9107525E+01  -2.1912124E+00   4.1495943E+00
  -1.9716303E+01  -2.2843668E+00   4.1208806E+00
  -2.0348917E+01  -2.3864789E+00   4.0717177E+00
  -2.1006832E+01  -2.4987998E+00   3.9995208E+00
  -2.1691505E+01  -2.6227913E+00   3.9015124E+00
  -2.2404388E+01  -2.7601712E+00   3.7747250E+00
  -2.3146864E+01  -2.9129741E+00   3.6159933E+00
  -2.3920259E+01  -3.0836194E+00   3.4219589E+00
  -2.4725760E+01  -3.2750084E+00   3.1890464E+00
  -2.5564362E+01  -3.4906297E+00   2.9134603E+00
  -2.6436804E+01  -3.7347069E+00   2.5911713E+00
  -2.7343445E+01  -4.0123658E+00   2.2179141E+00
  -2.8284126E+01  -4.3298502E+00   1.7891803E+00
  -2.9258003E+01  -4.6947761E+00   1.3002331E+00
  -3.0263308E+01  -5.1164279E+00   7.4610853E-01
  -3.1297085E+01  -5.6060953E+00   1.2160817E-01
  -3.2354752E+01  -6.1773958E+00  -5.7875013E-01
  -3.3429508E+01  -6.8465471E+00  -1.3608279E+00
  -3.4511402E+01  -7.6324768E+00  -2.2309959E+00
  -3.5585838E+01  -8.5565510E+00  -3.1961813E+00
  -3.6631489E+01  -9.6417322E+00  -4.2636151E+00
  -3.7617271E+01  -1.0910671E+01  -5.4398203E+00
  -3.8498779E+01  -1.2382375E+01  -6.7281561E+00
  -3.9214600E+01  -1.4066857E+01  -8.1240530E+00
  -3.9684124E+01  -1.5957523E+01  -9.6071472E+00
  -3.9809265E+01  -1.8021412E+01  -1.1130132E+01
  -3.9483185E+01  -2.0188597E+01  -1.2605431E+01
  -3.8609241E+01  -2.2343775E+01  -1.3893432E+01
  -3.7130543E+01  -2.4324566E+01  -1.4797964E+01
  -3.5065712E+01  -2.5932331E+01  -1.5076940E+01
  -3.2539116E+01  -2.6958443E+01  -1.4472652E+01
  -2.9789385E+01  -2.7223864E+01  -1.2759537E+01
  -2.7142754E+01  -2.6620829E+01  -9.7952042E+00
  -2.4951403E+01  -2.5140680E+01  -5.5534334E+00
  -5.5015564E-02  -6.2117767E-01   1.9265842E-01
   1.4679909E-02  -6.2750816E-01   2.0577240E-01
   7.4070930E-02  -6.1548996E-01   2.3548317E-01
   1.1791039E-01  -5.8998299E-01   2.7536964E-01
   1.4496040E-01  -5.5660534E-01   3.1895137E-01
   1.5699291E-01  -5.2034712E-01   3.6107719E-01
   1.5732002E-01  -4.8489857E-01   3.9849502E-01
   1.4964867E-01  -4.5253420E-01   4.2968413E-01
   1.3722229E-01  -4.2432785E-01   4.5442057E-01
  -1.0918791E+01  -1.1415040E+00   3.0760415E+00
  -1.1277246E+01  -1.1698420E+00   3.1583717E+00
  -1.1644871E+01  -1.1990614E+00   3.2409148E+00
  -1.2021900E+01  -1.2292573E+00   3.3233118E+00
  -1.2408613E+01  -1.2605412E+00   3.4051561E+00
  -1.2805342E+01  -1.2930434E+00   3.4859874E+00
  -1.3212475E+01  -1.3269145E+00   3.5652866E+00
  -1.3630472E+01  -1.3623289E+00   3.6424670E+00
  -1.4059863E+01  -1.3994862E+00   3.7168655E+00
  -1.4501260E+01  -1.4386147E+00   3.7877357E+00
  -1.4955364E+01  -1.4799751E+00   3.8542340E+00
  -1.5422965E+01  -1.5238634E+00   3.9154105E+00
  -1.5904951E+01  -1.5706158E+00   3.9701972E+00
  -1.6402309E+01  -1.6206138E+00   4.0173941E+00
  -1.6916124E+01  -1.6742901E+00   4.0556579E+00
  -1.7447578E+01  -1.7321364E+00   4.0834885E+00
  -1.7997944E+01  -1.7947123E+00   4.0992174E+00
  -1.8568586E+01  -1.8626578E+00   4.1010003E+00
  -1.9160942E+01  -1.9367071E+00   4.0868020E+00
  -1.9776524E+01  -2.0177059E+00   4.0543933E+00
  -2.0416893E+01  -2.1066377E+00   4.0013437E+00
  -2.1083664E+01  -2.2046504E+00   3.9250159E+00
  -2.1778488E+01  -2.3130941E+00   3.8225563E+00
  -2.2503031E+01  -2.4335697E+00   3.6908886E+00
  -2.3258970E+01  -2.5679865E+00   3.5266962E+00
  -2.4047983E+01  -2.7186370E+00   3.3264155E+00
  -2.4871696E+01  -2.8882933E+00   3.0861883E+00
  -2.5731676E+01  -3.0803249E+00   2.8018394E+00
  -2.6629360E+01  -3.2988496E+00   2.4688308E+00
  -2.7566004E+01  -3.5489259E+00   2.0822103E+00
  -2.8542583E+01  -3.8367894E+00   1.6365448E+00
  -2.9559679E+01  -4.1701479E+00   1.1258409E+00
  -3.0617306E+01  -4.5585356E+00   5.4341578E-01
  -3.1714684E+01  -5.0137234E+00  -1.1829233E-01
  -3.2849842E+01  -5.5501685E+00  -8.6801797E-01
  -3.4018936E+01  -6.1854382E+00  -1.7160786E+00
  -3.5215141E+01  -6.9405298E+00  -2.6748834E+00
  -3.6426762E+01  -7.8398924E+00  -3.7593944E+00
  -3.7634357E+01  -8.9108658E+00  -4.9872422E+00
  -3.8806564E+01  -1.0182120E+01  -6.3778877E+00
  -3.9894638E+01  -1.1680476E+01  -7.9498644E+00
  -4.0826416E+01  -1.3425402E+01  -9.7148323E+00
  -4.1501270E+01  -1.5420506E+01  -1.1667053E+01
  -4.1789345E+01  -1.7641788E+01  -1.3767477E+01
  -4.1539722E+01  -2.0023710E+01  -1.5923463E+01
  -4.0602890E+01  -2.2446222E+01  -1.7968327E+01
  -3.8870224E+01  -2.4728834E+01  -1.9649689E+01
  -3.6326363E+01  -2.6639744E+01  -2.0639015E+01
  -3.3098839E+01  -2.7926331E+01  -2.0572861E+01
  -2.9479389E+01  -2.8365646E+01  -1.9125214E+01
  -2.5893156E+01  -2.7821213E+01  -1.6090878E+01
  -2.2812145E+01  -2.6283125E+01  -1.1444107E+01
  -1.8446198E+01  -2.1392979E+01  -4.7633371E+00
   1.7686844E-02  -6.4811897E-01   8.6675644E-02
   9.4935417E-02  -6.3562298E-01   1.2835312E-01
   1.5036678E-01  -6.0709000E-01   1.8487597E-01
   1.8284130E-01  -5.6957817E-01   2.4635553E-01
   1.9545174E-01  -5.2920103E-01   3.0519724E-01
   1.9321156E-01  -4.9025679E-01   3.5683519E-01
   1.8129539E-01  -4.5523930E-01   3.9937621E-01
   1.6407681E-01  -4.2519808E-01   4.3276572E-01
  -1.0923942E+01  -1.0038663E+00   3.0577302E+00
  -1.1282481E+01  -1.0277084E+00   3.1385972E+00
  -1.1650266E+01  -1.0522856E+00   3.2195847E+00
  -1.2027546E+01  -1.0776774E+00   3.3003337E+00
  -1.2414618E+01  -1.1039780E+00   3.3804390E+00
  -1.2811833E+01  -1.1312969E+00   3.4594424E+00
  -1.3219604E+01  -1.1597614E+00   3.5368268E+00
  -1.3638410E+01  -1.1895185E+00   3.6120079E+00
  -1.4068807E+01  -1.2207372E+00   3.6843269E+00
  -1.4511435E+01  -1.2536108E+00   3.7530401E+00
  -1.4967023E+01  -1.2883606E+00   3.8173089E+00
  -1.5436394E+01  -1.3252383E+00   3.8761871E+00
  -1.5920472E+01  -1.3645301E+00   3.9286108E+00
  -1.6420280E+01  -1.4065621E+00   3.9733841E+00
  -1.6936954E+01  -1.4517046E+00   4.0091658E+00
  -1.7471716E+01  -1.5003808E+00   4.0344582E+00
  -1.8025904E+01  -1.5530730E+00   4.0475912E+00
  -1.8600945E+01  -1.6103357E+00   4.0467148E+00
  -1.9198353E+01  -1.6728071E+00   4.0297852E+00
  -1.9819735E+01  -1.7412282E+00   3.9945543E+00
  -2.0466770E+01  -1.8164623E+00   3.9385622E+00
  -2.1141212E+01  -1.8995248E+00   3.8591247E+00
  -2.1844891E+01  -1.9916177E+00   3.7533224E+00
  -2.2579685E+01  -2.0941734E+00   3.6179805E+00
  -2.3347551E+01  -2.2089140E+00   3.4496453E+00
  -2.4150515E+01  -2.3379192E+00   3.2445614E+00
  -2.4990639E+01  -2.4837253E+00   2.9986074E+00
  -2.5870049E+01  -2.6494389E+00   2.7072492E+00
  -2.6790903E+01  -2.8388913E+00   2.3654604E+00
  -2.7755367E+01  -3.0568309E+00   1.9676212E+00
  -2.8765593E+01  -3.3091722E+00   1.5073867E+00
  -2.9823658E+01  -3.6033049E+00   9.7750282E-01
  -3.0931494E+01  -3.9484835E+00   3.6954337E-01
  -3.2090698E+01  -4.3562818E+00  -3.2648796E-01
  -3.3302208E+01  -4.8411298E+00  -1.1227235E+00
  -3.4565647E+01  -5.4208646E+00  -2.0342069E+00
  -3.5878029E+01  -6.1172404E+00  -3.0798619E+00
  -3.7231617E+01  -6.9562387E+00  -4.2835016E+00
  -3.8610336E+01  -7.9678764E+00  -5.6745234E+00
  -3.9984398E+01  -9.1850958E+00  -7.2875018E+00
  -4.1302917E+01  -1.0641042E+01  -9.1594896E+00
  -4.2485023E+01  -1.2363834E+01  -1.1323174E+01
  -4.3411194E+01  -1.4367825E+01  -1.3793749E+01
  -4.3918606E+01  -1.6640574E+01  -1.6547749E+01
  -4.3807076E+01  -1.9126102E+01  -1.9493807E+01
  -4.2863762E+01  -2.1707520E+01  -2.2440485E+01
  -4.0913155E+01  -2.4195877E+01  -2.5072819E+01
  -3.7889893E+01  -2.6335827E+01  -2.6957006E+01
  -3.3915039E+01  -2.7838127E+01  -2.7592897E+01
  -2.9337814E+01  -2.8439623E+01  -2.6518030E+01
  -2.4703209E+01  -2.7975193E+01  -2.3436298E+01
  -2.0634285E+01  -2.6431145E+01  -1.8314819E+01
  -1.7667667E+01  -2.3951822E+01  -1.1394040E+01
  -1.0484982E+00  -1.9743252E+00  -2.5437546E-01
   1.1647224E-01  -6.3156605E-01   2.8972626E-03
   1.8515205E-01  -6.0315704E-01   7.9610825E-02
   2.2351456E-01  -5.6482792E-01   1.6270971E-01
   2.3639107E-01  -5.2352762E-01   2.4149776E-01
   2.3092365E-01  -4.8400259E-01   3.0986762E-01
   2.1409702E-01  -4.4883919E-01   3.6554518E-01
   1.9152737E-01  -4.1904402E-01   4.0878570E-01
  -1.0924080E+01  -8.6076230E-01   3.0391166E+00
  -1.1282581E+01  -8.7997669E-01   3.1187153E+00
  -1.1650391E+01  -8.9978027E-01   3.1983631E+00
  -1.2027771E+01  -9.2023736E-01   3.2777033E+00
  -1.2415034E+01  -9.4142395E-01   3.3563323E+00
  -1.2812548E+01  -9.6342880E-01   3.4337940E+00
  -1.3220738E+01  -9.8635483E-01   3.5095747E+00
  -1.3640106E+01  -1.0103215E+00   3.5830936E+00
  -1.4071232E+01  -1.0354658E+00   3.6536961E+00
  -1.4514774E+01  -1.0619451E+00   3.7206423E+00
  -1.4971488E+01  -1.0899392E+00   3.7830985E+00
  -1.5442225E+01  -1.1196535E+00   3.8401248E+00
  -1.5927938E+01  -1.1513219E+00   3.8906612E+00
  -1.6429688E+01  -1.1852111E+00   3.9335167E+00
  -1.6948639E+01  -1.2216249E+00   3.9673553E+00
  -1.7486067E+01  -1.2609109E+00   3.9906800E+00
  -1.8043354E+01  -1.3034678E+00   4.0018244E+00
  -1.8621984E+01  -1.3497537E+00   3.9989345E+00
  -1.9223547E+01  -1.4002994E+00   3.9799592E+00
  -1.9849728E+01  -1.4557223E+00   3.9426372E+00
  -2.0502312E+01  -1.5167463E+00   3.8844838E+00
  -2.1183180E+01  -1.5842247E+00   3.8027771E+00
  -2.1894314E+01  -1.6591738E+00   3.6945386E+00
  -2.2637804E+01  -1.7428104E+00   3.5565104E+00
  -2.3415850E+01  -1.8366060E+00   3.3851178E+00
  -2.4230795E+01  -1.9423457E+00   3.1764350E+00
  -2.5085119E+01  -2.0622208E+00   2.9261072E+00
  -2.5981470E+01  -2.1989329E+00   2.6292758E+00
  -2.6922676E+01  -2.3558357E+00   2.2804682E+00
  -2.7911787E+01  -2.5371182E+00   1.8734505E+00
  -2.8952082E+01  -2.7480383E+00   1.4010274E+00
  -3.0047113E+01  -2.9952281E+00   8.5476089E-01
  -3.1200695E+01  -3.2870665E+00   2.2455677E-01