# vtk DataFile Version 3.0
T01 + IGRF magnetic field in GSW coordinates
ASCII
DATASET STRUCTURED_GRID
DIMENSIONS     61    21    21
POINTS    26901 float
     -50.000000     -10.000000     -10.000000
     -49.000000     -10.000000     -10.000000
     -48.000000     -10.000000     -10.000000
     -47.000000     -10.000000     -10.000000
     -46.000000     -10.000000     -10.000000
     -45.000000     -10.000000     -10.000000
     -44.000000     -10.000000     -10.000000
     -43.000000     -10.000000     -10.000000
     -42.000000     -10.000000     -10.000000
     -41.000000     -10.000000     -10.000000
     -40.000000     -10.000000     -10.000000
     -39.000000     -10.000000     -10.000000
     -38.000000     -10.000000     -10.000000
     -37.000000     -10.000000     -10.000000
     -36.000000     -10.000000     -10.000000
     -35.000000     -10.000000     -10.000000
     -34.000000     -10.000000     -10.000000
     -33.000000     -10.000000     -10.000000
     -32.000000     -10.000000     -10.000000
     -31.000000     -10.000000     -10.000000
     -30.000000     -10.000000     -10.000000
     -29.000000     -10.000000     -10.000000
     -28.000000     -10.000000     -10.000000
     -27.000000     -10.000000     -10.000000
     -26.000000     -10.000000     -10.000000
     -25.000000     -10.000000     -10.000000
     -24.000000     -10.000000     -10.000000
     -23.000000     -10.000000     -10.000000
     -22.000000     -10.000000     -10.000000
     -21.000000     -10.000000     -10.000000
     -20.000000     -10.000000     -10.000000
     -19.000000     -10.000000     -10.000000
     -18.000000     -10.000000     -10.000000
     -17.000000     -10.000000     -10.000000
     -16.000000     -10.000000     -10.000000
     -15.000000     -10.000000     -10.000000
     -14.000000     -10.000000     -10.000000
     -13.000000     -10.000000     -10.000000
     -12.000000     -10.000000     -10.000000
     -11.000000     -10.000000     -10.000000
     -10.000000     -10.000000     -10.000000
      -9.000000     -10.000000     -10.000000
      -8.000000     -10.000000     -10.000000
      -7.000000     -10.000000     -10.000000
      -6.000000     -10.000000     -10.000000
      -5.000000     -10.000000     -10.000000
      -4.000000     -10.000000     -10.000000
      -3.000000     -10.000000     -10.000000
      -2.000000     -10.000000     -10.000000
      -1.000000     -10.000000     -10.000000
       0.000000     -10.000000     -10.000000
       1.000000     -10.000000     -10.000000
       2.000000     -10.000000     -10.000000
       3.000000     -10.000000     -10.000000
       4.000000     -10.000000     -10.000000
       5.000000     -10.000000     -10.000000
       6.000000     -10.000000     -10.000000
       7.000000     -10.000000     -10.000000
       8.000000     -10.000000     -10.000000
       9.000000     -10.000000     -10.000000
      10.000000     -10.000000     -10.000000
     -50.000000      -9.000000     -10.000000
     -49.000000      -9.000000     -10.000000
     -48.000000      -9.000000     -10.000000
     -47.000000      -9.000000     -10.000000
     -46.000000      -9.000000     -10.000000
     -45.000000      -9.000000     -10.000000
     -44.000000      -9.000000     -10.000000
     -43.000000      -9.000000     -10.000000
     -42.000000      -9.000000     -10.000000
     -41.000000      -9.000000     -10.000000
     -40.000000      -9.000000     -10.000000
     -39.000000      -9.000000     -10.000000
     -38.000000      -9.000000     -10.000000
     -37.000000      -9.000000     -10.000000
     -36.000000      -9.000000     -10.000000
     -35.000000      -9.000000     -10.000000
     -34.000000      -9.000000     -10.000000
     -33.000000      -9.000000     -10.000000
     -32.000000      -9.000000     -10.000000
     -31.000000      -9.000000     -10.000000
     -30.000000      -9.000000     -10.000000
     -29.000000      -9.000000     -10.000000
     -28.000000      -9.000000     -10.000000
     -27.000000      -9.000000     -10.000000
     -26.000000      -9.000000     -10.000000
     -25.000000      -9.000000     -10.000000
     -24.000000      -9.000000     -10.000000
     -23.000000      -9.000000     -10.000000
     -22.000000      -9.000000     -10.000000
     -21.000000      -9.000000     -10.000000
     -20.000000      -9.000000     -10.000000
     -19.000000      -9.000000     -10.000000
     -18.000000      -9.000000     -10.000000
     -17.000000      -9.000000     -10.000000
     -16.000000      -9.000000     -10.000000
     -15.000000      -9.000000     -10.000000
     -14.000000      -9.000000     -10.000000
     -13.000000      -9.000000     -10.000000
     -12.000000      -9.000000     -10.000000
     -11.000000      -9.000000     -10.000000
     -10.000000      -9.000000     -10.000000
      -9.000000      -9.000000     -10.000000
      -8.000000      -9.000000     -10.000000
      -7.000000      -9.000000     -10.000000
      -6.000000      -9.000000     -10.000000
      -5.000000      -9.000000     -10.000000
      -4.000000      -9.000000     -10.000000
      -3.000000      -9.000000     -10.000000
      -2.000000      -9.000000     -10.000000
      -1.000000      -9.000000     -10.000000
       0.000000      -9.000000     -10.000000
       1.000000      -9.000000     -10.000000
       2.000000      -9.000000     -10.000000
       3.000000      -9.000000     -10.000000
       4.000000      -9.000000     -10.000000
       5.000000      -9.000000     -10.000000
       6.000000      -9.000000     -10.000000
       7.000000      -9.000000     -10.000000
       8.000000      -9.000000     -10.000000
       9.000000      -9.000000     -10.000000
      10.000000      -9.000000     -10.000000
     -50.000000      -8.000000     -10.000000
     -49.000000      -8.000000     -10.000000
     -48.000000      -8.000000     -10.000000
     -47.000000      -8.000000     -10.000000
     -46.000000      -8.000000     -10.000000
     -45.000000      -8.000000     -10.000000
     -44.000000      -8.000000     -10.000000
     -43.000000      -8.000000     -10.000000
     -42.000000      -8.000000     -10.000000
     -41.000000      -8.000000     -10.000000
     -40.000000      -8.000000     -10.000000
     -39.000000      -8.000000     -10.000000
     -38.000000      -8.000000     -10.000000
     -37.000000      -8.000000     -10.000000
     -36.000000      -8.000000     -10.000000
     -35.000000      -8.000000     -10.000000
     -34.000000      -8.000000     -10.000000
     -33.000000      -8.000000     -10.000000
     -32.000000      -8.000000     -10.000000
     -31.000000      -8.000000     -10.000000
     -30.000000      -8.000000     -10.000000
     -29.000000      -8.000000     -10.000000
     -28.000000      -8.000000     -10.000000
     -27.000000      -8.000000     -10.000000
     -26.000000      -8.000000     -10.000000
     -25.000000      -8.000000     -10.000000
     -24.000000      -8.000000     -10.000000
     -23.000000      -8.000000     -10.000000
     -22.000000      -8.000000     -10.000000
     -21.000000      -8.000000     -10.000000
     -20.000000      -8.000000     -10.000000
     -19.000000      -8.000000     -10.000000
     -18.000000      -8.000000     -10.000000
     -17.000000      -8.000000     -10.000000
     -16.000000      -8.000000     -10.000000
     -15.000000      -8.000000     -10.000000
     -14.000000      -8.000000     -10.000000
     -13.000000      -8.000000     -10.000000
     -12.000000      -8.000000     -10.000000
     -11.000000      -8.000000     -10.000000
     -10.000000      -8.000000     -10.000000
      -9.000000      -8.000000     -10.000000
      -8.000000      -8.000000     -10.000000
      -7.000000      -8.000000     -10.000000
      -6.000000      -8.000000     -10.000000
      -5.000000      -8.000000     -10.000000
      -4.000000      -8.000000     -10.000000
      -3.000000      -8.000000     -10.000000
      -2.000000      -8.000000     -10.000000
      -1.000000      -8.000000     -10.000000
       0.000000      -8.000000     -10.000000
       1.000000      -8.000000     -10.000000
       2.000000      -8.000000     -10.000000
       3.000000      -8.000000     -10.000000
       4.000000      -8.000000     -10.000000
       5.000000      -8.000000     -10.000000
       6.000000      -8.000000     -10.000000
       7.000000      -8.000000     -10.000000
       8.000000      -8.000000     -10.000000
       9.000000      -8.000000     -10.000000
      10.000000      -8.000000     -10.000000
     -50.000000      -7.000000     -10.000000
     -49.000000      -7.000000     -10.000000
     -48.000000      -7.000000     -10.000000
     -47.000000      -7.000000     -10.000000
     -46.000000      -7.000000     -10.000000
     -45.000000      -7.000000     -10.000000
     -44.000000      -7.000000     -10.000000
     -43.000000      -7.000000     -10.000000
     -42.000000      -7.000000     -10.000000
     -41.000000      -7.000000     -10.000000
     -40.000000      -7.000000     -10.000000
     -39.000000      -7.000000     -10.000000
     -38.000000      -7.000000     -10.000000
     -37.000000      -7.000000     -10.000000
     -36.000000      -7.000000     -10.000000
     -35.000000      -7.000000     -10.000000
     -34.000000      -7.000000     -10.000000
     -33.000000      -7.000000     -10.000000
     -32.000000      -7.000000     -10.000000
     -31.000000      -7.000000     -10.000000
     -30.000000      -7.000000     -10.000000
     -29.000000      -7.000000     -10.000000
     -28.000000      -7.000000     -10.000000
     -27.000000      -7.000000     -10.000000
     -26.000000      -7.000000     -10.000000
     -25.000000      -7.000000     -10.000000
[...]
POINT_DATA    26901
VECTORS B_total float
  -1.0416009E+01  -1.5425496E+00   3.1624269E+00
  -1.0762527E+01  -1.5848153E+00   3.2507856E+00
  -1.1117958E+01  -1.6285757E+00   3.3398938E+00
  -1.1482489E+01  -1.6739938E+00   3.4294305E+00
  -1.1856343E+01  -1.7212586E+00   3.5190294E+00
  -1.2239788E+01  -1.7705885E+00   3.6082752E+00
  -1.2633142E+01  -1.8222344E+00   3.6966975E+00
  -1.3036782E+01  -1.8764832E+00   3.7837639E+00
  -1.3451148E+01  -1.9336615E+00   3.8688717E+00
  -1.3876757E+01  -1.9941400E+00   3.9513412E+00
  -1.4314196E+01  -2.0583375E+00   4.0304031E+00
  -1.4764142E+01  -2.1267254E+00   4.1051898E+00
  -1.5227353E+01  -2.1998339E+00   4.1747246E+00
  -1.5704674E+01  -2.2782567E+00   4.2379098E+00
  -1.6197035E+01  -2.3626571E+00   4.2935133E+00
  -1.6705444E+01  -2.4537773E+00   4.3401613E+00
  -1.7230980E+01  -2.5524457E+00   4.3763261E+00
  -1.7774780E+01  -2.6595869E+00   4.4003205E+00
  -1.8338017E+01  -2.7762351E+00   4.4102931E+00
  -1.8921885E+01  -2.9035485E+00   4.4042282E+00
  -1.9527569E+01  -3.0428274E+00   4.3799534E+00
  -2.0156212E+01  -3.1955371E+00   4.3351431E+00
  -2.0808886E+01  -3.3633363E+00   4.2673402E+00
  -2.1486544E+01  -3.5481095E+00   4.1739707E+00
  -2.2189983E+01  -3.7520070E+00   4.0523653E+00
  -2.2919767E+01  -3.9774942E+00   3.8997855E+00
  -2.3676184E+01  -4.2274051E+00   3.7134614E+00
  -2.4459106E+01  -4.5050058E+00   3.4906092E+00
  -2.5267893E+01  -4.8140659E+00   3.2284956E+00
  -2.6101210E+01  -5.1589394E+00   2.9245057E+00
  -2.6956825E+01  -5.5446444E+00   2.5762658E+00
  -2.7831347E+01  -5.9769526E+00   2.1818125E+00
  -2.8719942E+01  -6.4624672E+00   1.7398511E+00
  -2.9616051E+01  -7.0086861E+00   1.2500873E+00
  -3.0511070E+01  -7.6240010E+00   7.1364725E-01
  -3.1394117E+01  -8.3176060E+00   1.3354100E-01
  -3.2251797E+01  -9.0992250E+00  -4.8482686E-01
  -3.3068020E+01  -9.9785366E+00  -1.1331855E+00
  -3.3823887E+01  -1.0964174E+01  -1.7999206E+00
  -3.4497608E+01  -1.2062110E+01  -2.4696059E+00
  -3.5064529E+01  -1.3273287E+01  -3.1223702E+00
  -3.5497570E+01  -1.4590458E+01  -3.7329564E+00
  -3.5768398E+01  -1.5994359E+01  -4.2692108E+00
  -3.5850170E+01  -1.7449791E+01  -4.6900678E+00
  -3.5722427E+01  -1.8902428E+01  -4.9433146E+00
  -3.5378597E+01  -2.0277779E+01  -4.9642234E+00
  -3.4835373E+01  -2.1483685E+01  -4.6762280E+00
  -3.4142063E+01  -2.2417454E+01  -3.9948826E+00
  -3.3386505E+01  -2.2977251E+01  -2.8350263E+00
  -1.0130072E-01  -4.3222904E-01   4.2706013E-01
  -8.5460186E-02  -4.6010017E-01   4.1599369E-01
  -6.3080311E-02  -4.8225689E-01   4.0884018E-01
  -3.6661625E-02  -4.9660778E-01   4.0659690E-01
  -9.2377663E-03  -5.0226021E-01   4.0943193E-01
   1.6315937E-02  -4.9958229E-01   4.1670585E-01
   3.7836552E-02  -4.8994541E-01   4.2720938E-01
   5.4136753E-02  -4.7527504E-01   4.3950766E-01
   6.4969063E-02  -4.5760345E-01   4.5225912E-01
   7.0790768E-02  -4.3873167E-01   4.6440449E-01
   7.2474957E-02  -4.2005539E-01   4.7525001E-01
   7.1036339E-02  -4.0251493E-01   4.8444474E-01
  -1.0461789E+01  -1.4369013E+00   3.1541443E+00
  -1.0809753E+01  -1.4756165E+00   3.2405884E+00
  -1.1166784E+01  -1.5156928E+00   3.3276081E+00
  -1.1533094E+01  -1.5572791E+00   3.4148757E+00
  -1.1908937E+01  -1.6005485E+00   3.5020201E+00
  -1.2294607E+01  -1.6457012E+00   3.5886209E+00
  -1.2690461E+01  -1.6929671E+00   3.6742022E+00
  -1.3096912E+01  -1.7426099E+00   3.7582250E+00
  -1.3514444E+01  -1.7949302E+00   3.8400817E+00
  -1.3943615E+01  -1.8502697E+00   3.9190841E+00
  -1.4385063E+01  -1.9090149E+00   3.9944553E+00
  -1.4839516E+01  -1.9716024E+00   4.0653181E+00
  -1.5307789E+01  -2.0385242E+00   4.1306839E+00
  -1.5790789E+01  -2.1103330E+00   4.1894407E+00
  -1.6289511E+01  -2.1876493E+00   4.2403402E+00
  -1.6805035E+01  -2.2711697E+00   4.2819867E+00
  -1.7338524E+01  -2.3616760E+00   4.3128281E+00
  -1.7891201E+01  -2.4600465E+00   4.3311439E+00
  -1.8464340E+01  -2.5672693E+00   4.3350444E+00
  -1.9059254E+01  -2.6844609E+00   4.3224640E+00
  -1.9677254E+01  -2.8128848E+00   4.2911649E+00
  -2.0319647E+01  -2.9539797E+00   4.2387424E+00
  -2.0987690E+01  -3.1093903E+00   4.1626320E+00
  -2.1682552E+01  -3.2810066E+00   4.0601225E+00
  -2.2405291E+01  -3.4710121E+00   3.9283683E+00
  -2.3156786E+01  -3.6819410E+00   3.7643986E+00
  -2.3937687E+01  -3.9167492E+00   3.5651488E+00
  -2.4748310E+01  -4.1788931E+00   3.3274570E+00
  -2.5588530E+01  -4.4724298E+00   3.0481083E+00
  -2.6457617E+01  -4.8021245E+00   2.7238863E+00
  -2.7354046E+01  -5.1735840E+00   2.3516545E+00
  -2.8275251E+01  -5.5933981E+00   1.9284914E+00
  -2.9217354E+01  -6.0692925E+00   1.4518843E+00
  -3.0174845E+01  -6.6102734E+00   9.1998410E-01
  -3.1140232E+01  -7.2267299E+00   3.3190536E-01
  -3.2103683E+01  -7.9304509E+00  -3.1192511E-01
  -3.3052555E+01  -8.7344322E+00  -1.0094169E+00
  -3.3970837E+01  -9.6523762E+00  -1.7564344E+00
  -3.4838455E+01  -1.0697649E+01  -2.5463383E+00
  -3.5630344E+01  -1.1881491E+01  -3.3693032E+00
  -3.6315578E+01  -1.3210241E+01  -4.2111497E+00
  -3.6856735E+01  -1.4681377E+01  -5.0513315E+00
  -3.7210461E+01  -1.6278543E+01  -5.8598204E+00
  -3.7330208E+01  -1.7965912E+01  -6.5929050E+00
  -3.7172550E+01  -1.9683119E+01  -7.1886258E+00
  -3.6707806E+01  -2.1342566E+01  -7.5634899E+00
  -3.5934361E+01  -2.2831308E+01  -7.6127481E+00
  -3.4893818E+01  -2.4019594E+01  -7.2165112E+00
  -3.3681877E+01  -2.4776438E+01  -6.2524352E+00
  -3.2448994E+01  -2.4990086E+01  -4.6129317E+00
  -1.1491680E-01  -4.8313141E-01   3.7098646E-01
  -8.4525585E-02  -5.1262856E-01   3.5822248E-01
  -4.8230171E-02  -5.3168678E-01   3.5352087E-01
  -1.0660648E-02  -5.3904438E-01   3.5718632E-01
   2.3863792E-02  -5.3530216E-01   3.6810064E-01
   5.2248001E-02  -5.2249813E-01   3.8419080E-01
   7.2960854E-02  -5.0342083E-01   4.0304554E-01
   8.5906982E-02  -4.8088694E-01   4.2246950E-01
   9.1989040E-02  -4.5728827E-01   4.4080383E-01
   9.2639446E-02  -4.3438959E-01   4.5702633E-01
   8.9393139E-02  -4.1330099E-01   4.7066015E-01
  -1.0494404E+01  -1.3248798E+00   3.1434479E+00
  -1.0843410E+01  -1.3598332E+00   3.2281208E+00
  -1.1201619E+01  -1.3960091E+00   3.3132191E+00
  -1.1569266E+01  -1.4335413E+00   3.3984115E+00
  -1.1946630E+01  -1.4725860E+00   3.4833241E+00
  -1.2334039E+01  -1.5133246E+00   3.5675330E+00
  -1.2731877E+01  -1.5559651E+00   3.6505592E+00
  -1.3140596E+01  -1.6007465E+00   3.7318614E+00
  -1.3560714E+01  -1.6479421E+00   3.8108270E+00
  -1.3992832E+01  -1.6978621E+00   3.8867652E+00
  -1.4437635E+01  -1.7508593E+00   3.9588940E+00
  -1.4895899E+01  -1.8073320E+00   4.0263309E+00
  -1.5368492E+01  -1.8677307E+00   4.0880795E+00
  -1.5856380E+01  -1.9325631E+00   4.1430192E+00
  -1.6360620E+01  -2.0024011E+00   4.1898894E+00
  -1.6882368E+01  -2.0778894E+00   4.2272806E+00
  -1.7422859E+01  -2.1597550E+00   4.2536192E+00
  -1.7983408E+01  -2.2488186E+00   4.2671614E+00
  -1.8565395E+01  -2.3460112E+00   4.2659836E+00
  -1.9170242E+01  -2.4523892E+00   4.2479773E+00
  -1.9799412E+01  -2.5691605E+00   4.2108488E+00
  -2.0454365E+01  -2.6977105E+00   4.1521168E+00
  -2.1136555E+01  -2.8396373E+00   4.0691185E+00
  -2.1847397E+01  -2.9967971E+00   3.9590101E+00
  -2.2588228E+01  -3.1713569E+00   3.8187680E+00
  -2.3360277E+01  -3.3658581E+00   3.6452022E+00
  -2.4164608E+01  -3.5833025E+00   3.4349372E+00
  -2.5002039E+01  -3.8272467E+00   3.1844249E+00
  -2.5873058E+01  -4.1019206E+00   2.8899491E+00
  -2.6777672E+01  -4.4123755E+00   2.5476434E+00
  -2.7715240E+01  -4.7646484E+00   2.1535366E+00
  -2.8684269E+01  -5.1659737E+00   1.7036260E+00
  -2.9682140E+01  -5.6249990E+00   1.1939881E+00
  -3.0704805E+01  -6.1520309E+00   6.2091643E-01
  -3.1746420E+01  -6.7592616E+00  -1.8922105E-02
  -3.2798824E+01  -7.4609070E+00  -7.2833258E-01
  -3.3850876E+01  -8.2731791E+00  -1.5094414E+00
  -3.4887478E+01  -9.2139206E+00  -2.3634987E+00
  -3.5888161E+01  -1.0301643E+01  -3.2905107E+00
  -3.6825260E+01  -1.1553719E+01  -4.2884107E+00
  -3.7661709E+01  -1.2983298E+01  -5.3513432E+00
  -3.8349052E+01  -1.4594702E+01  -6.4664764E+00
  -3.8826694E+01  -1.6377111E+01  -7.6088734E+00
  -3.9024178E+01  -1.8296978E+01  -8.7343826E+00
  -3.8868576E+01  -2.0290358E+01  -9.7715302E+00
  -3.8298691E+01  -2.2257446E+01  -1.0614777E+01
  -3.7285839E+01  -2.4062782E+01  -1.1123014E+01
  -3.5857826E+01  -2.5544653E+01  -1.1127470E+01
  -3.4118107E+01  -2.6535269E+01  -1.0451389E+01
  -3.2250385E+01  -2.6889574E+01  -8.9392042E+00
  -3.0500790E+01  -2.6514797E+01  -6.4866080E+00
  -1.2262478E+00  -1.4927921E+00   1.6121387E-01
  -6.3517570E-02  -5.6476974E-01   2.8097343E-01
  -1.2480736E-02  -5.7453156E-01   2.8568268E-01
   3.3760071E-02  -5.6982613E-01   3.0190229E-01
   7.0815086E-02  -5.5360126E-01   3.2612991E-01
   9.6776962E-02  -5.2973080E-01   3.5439873E-01
   1.1188889E-01  -5.0200081E-01   3.8324666E-01
   1.1779404E-01  -4.7350073E-01   4.1016003E-01
   1.1671638E-01  -4.4636631E-01   4.3367279E-01
   1.1090136E-01  -4.2184401E-01   4.5321256E-01
  -1.0516005E+01  -1.2067660E+00   3.1298311E+00
  -1.0865722E+01  -1.2377701E+00   3.2128613E+00
  -1.1224762E+01  -1.2698534E+00   3.2961907E+00
  -1.1593382E+01  -1.3031350E+00   3.3794870E+00
  -1.1971884E+01  -1.3377541E+00   3.4623737E+00
  -1.2360620E+01  -1.3738714E+00   3.5444260E+00
  -1.2760008E+01  -1.4116728E+00   3.6251643E+00
  -1.3170526E+01  -1.4513713E+00   3.7040460E+00
  -1.3592731E+01  -1.4932108E+00   3.7804587E+00
  -1.4027262E+01  -1.5374690E+00   3.8537090E+00
  -1.4474844E+01  -1.5844620E+00   3.9230139E+00
  -1.4936297E+01  -1.6345478E+00   3.9874885E+00
  -1.5412542E+01  -1.6881312E+00   4.0461330E+00
  -1.5904596E+01  -1.7456710E+00   4.0978212E+00
  -1.6413582E+01  -1.8076848E+00   4.1412859E+00
  -1.6940718E+01  -1.8747588E+00   4.1751070E+00
  -1.7487318E+01  -1.9475564E+00   4.1976972E+00
  -1.8054783E+01  -2.0268307E+00   4.2072935E+00
  -1.8644594E+01  -2.1134403E+00   4.2019444E+00
  -1.9258291E+01  -2.2083664E+00   4.1795058E+00
  -1.9897476E+01  -2.3127370E+00   4.1376333E+00
  -2.0563778E+01  -2.4278569E+00   4.0737777E+00
  -2.1258854E+01  -2.5552433E+00   3.9851840E+00
  -2.1984364E+01  -2.6966724E+00   3.8688824E+00
  -2.2741940E+01  -2.8542373E+00   3.7216809E+00
  -2.3533186E+01  -3.0304179E+00   3.5401664E+00
  -2.4359612E+01  -3.2281711E+00   3.3206649E+00
  -2.5222595E+01  -3.4510412E+00   3.0592370E+00
  -2.6123299E+01  -3.7032962E+00   2.7516515E+00
  -2.7062572E+01  -3.9900966E+00   2.3933661E+00
  -2.8040817E+01  -4.3177047E+00   1.9795208E+00
  -2.9057806E+01  -4.6937337E+00   1.5049363E+00
  -3.0112480E+01  -5.1274505E+00   9.6411705E-01
  -3.1202648E+01  -5.6301041E+00   3.5124657E-01
  -3.2324612E+01  -6.2152772E+00  -3.3985275E-01
  -3.3472576E+01  -6.8991899E+00  -1.1158161E+00
  -3.4637756E+01  -7.7008648E+00  -1.9838634E+00
  -3.5806980E+01  -8.6419735E+00  -2.9519119E+00
  -3.6960594E+01  -9.7461052E+00  -4.0284142E+00
  -3.8069466E+01  -1.1037081E+01  -5.2215405E+00
  -3.9091301E+01  -1.2535826E+01  -6.5370245E+00
  -3.9966667E+01  -1.4255268E+01  -7.9737644E+00
  -4.0616287E+01  -1.6192894E+01  -9.5163879E+00
  -4.0941818E+01  -1.8320992E+01  -1.1124342E+01
  -4.0833656E+01  -2.0575842E+01  -1.2718670E+01
  -4.0188652E+01  -2.2848476E+01  -1.4169584E+01
  -3.8939152E+01  -2.4981766E+01  -1.5290747E+01
  -3.7089172E+01  -2.6779408E+01  -1.5847775E+01
  -3.4746979E+01  -2.8030775E+01  -1.5586486E+01
  -3.2137589E+01  -2.8549568E+01  -1.4279109E+01
  -2.9581203E+01  -2.8216330E+01  -1.1775822E+01
  -2.7435911E+01  -2.7008656E+01  -8.0407219E+00
  -8.3729744E-02  -5.8921814E-01   1.8624687E-01
  -1.5286446E-02  -6.0248566E-01   1.9206429E-01
   4.5850754E-02  -5.9746933E-01   2.1558571E-01
   9.3568802E-02  -5.7821655E-01   2.5110292E-01
   1.2561512E-01  -5.4990482E-01   2.9230547E-01
   1.4285183E-01  -5.1741028E-01   3.3386207E-01
   1.4798355E-01  -4.8453712E-01   3.7211561E-01
   1.4437294E-01  -4.5378828E-01   4.0508255E-01
   1.3515759E-01  -4.2648315E-01   4.3212360E-01
  -1.0528879E+01  -1.0829117E+00   3.1137290E+00
  -1.0879054E+01  -1.1097971E+00   3.1952524E+00
  -1.1238655E+01  -1.1376154E+00   3.2769721E+00
  -1.1607958E+01  -1.1664704E+00   3.3585546E+00
  -1.1987287E+01  -1.1964829E+00   3.4396243E+00
  -1.2377018E+01  -1.2277936E+00   3.5197563E+00
  -1.2777594E+01  -1.2605641E+00   3.5984714E+00
  -1.3189521E+01  -1.2949806E+00   3.6752281E+00
  -1.3613388E+01  -1.3312564E+00   3.7494147E+00
  -1.4049868E+01  -1.3696347E+00   3.8203390E+00
  -1.4499723E+01  -1.4103924E+00   3.8872185E+00
  -1.4963817E+01  -1.4538440E+00   3.9491680E+00
  -1.5443110E+01  -1.5003462E+00   4.0051880E+00
  -1.5938677E+01  -1.5503037E+00   4.0541496E+00
  -1.6451691E+01  -1.6041745E+00   4.0947819E+00
  -1.6983433E+01  -1.6624792E+00   4.1256576E+00
  -1.7535294E+01  -1.7258089E+00   4.1451807E+00
  -1.8108751E+01  -1.7948382E+00   4.1515732E+00
  -1.8705385E+01  -1.8703387E+00   4.1428623E+00
  -1.9326851E+01  -1.9531980E+00   4.1168723E+00
  -1.9974882E+01  -2.0444417E+00   4.0712147E+00
  -2.0651276E+01  -2.1452646E+00   4.0032811E+00
  -2.1357889E+01  -2.2570648E+00   3.9102297E+00
  -2.2096624E+01  -2.3814909E+00   3.7889762E+00
  -2.2869419E+01  -2.5205014E+00   3.6361690E+00
  -2.3678251E+01  -2.6764338E+00   3.4481816E+00
  -2.4525093E+01  -2.8521028E+00   3.2210531E+00
  -2.5411901E+01  -3.0509119E+00   2.9504611E+00
  -2.6340561E+01  -3.2770033E+00   2.6316626E+00
  -2.7312832E+01  -3.5354404E+00   2.2594352E+00
  -2.8330256E+01  -3.8324447E+00   1.8280070E+00
  -2.9394026E+01  -4.1756792E+00   1.3309665E+00
  -3.0504862E+01  -4.5746069E+00   7.6114827E-01
  -3.1662748E+01  -5.0408993E+00   1.1044699E-01
  -3.2866592E+01  -5.5889039E+00  -6.3045633E-01
  -3.4113590E+01  -6.2360973E+00  -1.4724927E+00
  -3.5398178E+01  -7.0034733E+00  -2.4287314E+00
  -3.6710255E+01  -7.9156523E+00  -3.5148969E+00
  -3.8032368E+01  -9.0004730E+00  -4.7496195E+00
  -3.9335590E+01  -1.0287631E+01  -6.1538544E+00
  -4.0573997E+01  -1.1805750E+01  -7.7484970E+00
  -4.1678299E+01  -1.3577168E+01  -9.5489502E+00
  -4.2550213E+01  -1.5609681E+01  -1.1555160E+01
  -4.3060646E+01  -1.7884930E+01  -1.3736151E+01
  -4.3056465E+01  -2.0344278E+01  -1.6009903E+01
  -4.2381321E+01  -2.2875050E+01  -1.8222149E+01
  -4.0913990E+01  -2.5303110E+01  -2.0133045E+01
  -3.8620964E+01  -2.7399891E+01  -2.1423817E+01
  -3.5608604E+01  -2.8910664E+01  -2.1734520E+01
  -3.2149742E+01  -2.9603760E+01  -2.0733778E+01
  -2.8659761E+01  -2.9328215E+01  -1.8202286E+01
  -2.5616096E+01  -2.8056944E+01  -1.4095362E+01
  -2.3445446E+01  -2.5894392E+01  -8.5516434E+00
  -2.0258904E-02  -6.1379051E-01   7.6312065E-02
   5.9162140E-02  -6.1002159E-01   1.0913563E-01
   1.1961365E-01  -5.8930969E-01   1.5930748E-01
   1.5852451E-01  -5.5816174E-01   2.1720123E-01
   1.7774105E-01  -5.2254486E-01   2.7493024E-01
   1.8150616E-01  -4.8693514E-01   3.2733142E-01
   1.7457008E-01  -4.5409155E-01   3.7187248E-01
   1.6121101E-01  -4.2537069E-01   4.0792346E-01
  -1.0535294E+01  -9.5380956E-01   3.0962818E+00
  -1.0885738E+01  -9.7642422E-01   3.1764567E+00
  -1.1245697E+01  -9.9982256E-01   3.2567453E+00
  -1.1615462E+01  -1.0240924E+00   3.3368158E+00
  -1.1995377E+01  -1.0493362E+00   3.4162927E+00
  -1.2385837E+01  -1.0756724E+00   3.4947526E+00
  -1.2787306E+01  -1.1032386E+00   3.5717180E+00
  -1.3200318E+01  -1.1321925E+00   3.6466491E+00
  -1.3625487E+01  -1.1627152E+00   3.7189367E+00
  -1.4063517E+01  -1.1950135E+00   3.7878902E+00
  -1.4515203E+01  -1.2293231E+00   3.8527296E+00
  -1.4981443E+01  -1.2659121E+00   3.9125714E+00
  -1.5463240E+01  -1.3050852E+00   3.9664166E+00
  -1.5961711E+01  -1.3471888E+00   4.0131373E+00
  -1.6478081E+01  -1.3926158E+00   4.0514603E+00
  -1.7013689E+01  -1.4418142E+00   4.0799556E+00
  -1.7569986E+01  -1.4952942E+00   4.0970201E+00
  -1.8148533E+01  -1.5536401E+00   4.1008644E+00
  -1.8750992E+01  -1.6175231E+00   4.0894985E+00
  -1.9379126E+01  -1.6877184E+00   4.0607214E+00
  -2.0034796E+01  -1.7651274E+00   4.0121069E+00
  -2.0719955E+01  -1.8508034E+00   3.9409924E+00
  -2.1436646E+01  -1.9459877E+00   3.8444614E+00
  -2.2187008E+01  -2.0521522E+00   3.7193246E+00
  -2.2973269E+01  -2.1710572E+00   3.5620852E+00
  -2.3797770E+01  -2.3048170E+00   3.3689196E+00
  -2.4662937E+01  -2.4559958E+00   3.1355989E+00
  -2.5571302E+01  -2.6277211E+00   2.8574395E+00
  -2.6525476E+01  -2.8238292E+00   2.5292115E+00
  -2.7528139E+01  -3.0490544E+00   2.1450331E+00
  -2.8582003E+01  -3.3092725E+00   1.6982384E+00
  -2.9689766E+01  -3.6118035E+00   1.1811892E+00
  -3.0854033E+01  -3.9657927E+00   5.8502889E-01
  -3.2077168E+01  -4.3826756E+00  -1.0069627E-01
  -3.3360977E+01  -4.8767157E+00  -8.8857734E-01
  -3.4706139E+01  -5.4655943E+00  -1.7941096E+00
  -3.6111019E+01  -6.1709700E+00  -2.8366690E+00
  -3.7569622E+01  -7.0188742E+00  -4.0405927E+00
  -3.9068138E+01  -8.0396576E+00  -5.4360332E+00
  -4.0579685E+01  -9.2670889E+00  -7.0588655E+00
  -4.2056885E+01  -1.0735894E+01  -8.9484520E+00
  -4.3422684E+01  -1.2476844E+01  -1.1141455E+01
  -4.4561020E+01  -1.4508328E+01  -1.3659433E+01
  -4.5311024E+01  -1.6823608E+01  -1.6488373E+01
  -4.5471161E+01  -1.9373960E+01  -1.9549736E+01
  -4.4821728E+01  -2.2050591E+01  -2.2667595E+01
  -4.3172966E+01  -2.4671946E+01  -2.5542994E+01
  -4.0437557E+01  -2.6986889E+01  -2.7754717E+01
  -3.6709572E+01  -2.8704384E+01  -2.8806673E+01
  -3.2312866E+01  -2.9551764E+01  -2.8227922E+01
  -2.7777885E+01  -2.9347288E+01  -2.5700817E+01
  -2.3732204E+01  -2.8057331E+01  -2.1163008E+01
  -2.0739101E+01  -2.5808321E+01  -1.4827206E+01
  -1.2017756E+01  -1.4543421E+01  -4.4730892E+00
   7.1426392E-02  -5.9747887E-01  -1.2849808E-02
   1.4650536E-01  -5.7849693E-01   5.4693222E-02
   1.9302940E-01  -5.4787636E-01   1.3239193E-01
   2.1420956E-01  -5.1242161E-01   2.0912027E-01
   2.1615410E-01  -4.7706509E-01   2.7792454E-01
   2.0540047E-01  -4.4472933E-01   3.3565068E-01
   1.8745518E-01  -4.1676354E-01   3.8180172E-01
  -1.0537343E+01  -8.2011086E-01   3.0790343E+00
  -1.0887928E+01  -8.3832175E-01   3.1580484E+00
  -1.1248100E+01  -8.5716444E-01   3.2371135E+00
  -1.1618164E+01  -8.7670982E-01   3.3158982E+00
  -1.1998478E+01  -8.9704096E-01   3.3940282E+00
  -1.2389459E+01  -9.1825444E-01   3.4710829E+00
  -1.2791584E+01  -9.4046170E-01   3.5465860E+00
  -1.3205412E+01  -9.6379131E-01   3.6200008E+00
  -1.3631577E+01  -9.8839039E-01   3.6907201E+00
  -1.4070807E+01  -1.0144275E+00   3.7580569E+00
  -1.4523930E+01  -1.0420951E+00   3.8212328E+00
  -1.4991869E+01  -1.0716119E+00   3.8793678E+00
  -1.5475666E+01  -1.1032274E+00   3.9314644E+00
  -1.5976473E+01  -1.1372252E+00   3.9763958E+00
  -1.6495558E+01  -1.1739278E+00   4.0128894E+00
  -1.7034313E+01  -1.2137041E+00   4.0395126E+00
  -1.7594240E+01  -1.2569749E+00   4.0546589E+00
  -1.8176970E+01  -1.3042237E+00   4.0565290E+00
  -1.8784241E+01  -1.3560076E+00   4.0431204E+00
  -1.9417912E+01  -1.4129726E+00   4.0122118E+00
  -2.0079956E+01  -1.4758723E+00   3.9613442E+00
  -2.0772457E+01  -1.5455915E+00   3.8878100E+00
  -2.1497641E+01  -1.6231773E+00   3.7886281E+00
  -2.2257849E+01  -1.7098776E+00   3.6605172E+00
  -2.3055576E+01  -1.8071923E+00   3.4998541E+00
  -2.3893496E+01  -1.9169308E+00   3.3026409E+00
  -2.4774454E+01  -2.0413041E+00   3.0644116E+00
  -2.5701513E+01  -2.1830220E+00   2.7801561E+00
  -2.6677973E+01  -2.3454335E+00   2.4442034E+00
  -2.7707388E+01  -2.5327027E+00   2.0500684E+00
  -2.8793602E+01  -2.7500377E+00   1.5902525E+00
  -2.9940767E+01  -3.0039856E+00   1.0559702E+00
  -3.1153362E+01  -3.3028076E+00   4.3675658E-01