<?xml version="1.0"?>
<VTKFile type="StructuredGrid" version="0.1" byte_order="LittleEndian" header_type="UInt32" compressor="vtkZLibDataCompressor">
  <StructuredGrid WholeExtent="0 60 0 20 0 20">
  <Piece Extent="0 60 0 20 0 20">
    <PointData Vectors="B_total">
      <DataArray type="Float32" Name="B_total" NumberOfComponents="3" format="ascii" RangeMin="0" RangeMax="60304.753444305185">
        -9.430299 -1.2433238 3.2508156 -9.754041 -1.2776341 3.336035
        -10.087158 -1.3135712 3.4218645 -10.42993 -1.3513283 3.5080533
        -10.782674 -1.391126 3.594318 -11.145758 -1.4332175 3.6803422
        -11.519605 -1.4778904 3.765768 -11.904699 -1.5254718 3.8501935
        -12.301593 -1.5763324 3.933163 -12.710919 -1.6308916 4.01416
        -13.133392 -1.6896222 4.0926003 -13.569813 -1.7530569 4.1678157
        -14.02108 -1.8217943 4.239047 -14.488184 -1.896506 4.3054285
        -14.97221 -1.9779444 4.3659754 -15.474336 -2.0669513 4.41957
        -15.995825 -2.1644676 4.4649477 -16.53801 -2.2715445 4.5006857
        -17.102282 -2.3893557 4.5251913 -17.690073 -2.5192132 4.5366974
        -18.30283 -2.6625843 4.533258 -18.94199 -2.8211126 4.5127497
        -19.608952 -2.996644 4.4728765 -20.305038 -3.1912584 4.4111795
        -21.031473 -3.4073062 4.3250437 -21.789326 -3.6474547 4.2117105
        -22.579464 -3.9147358 4.0682955 -23.40248 -4.212614 3.8917842
        -24.258583 -4.5450506 3.679057 -25.147478 -4.9165807 3.4269261
        -26.06817 -5.3323927 3.1321936 -27.018742 -5.7984133 2.7917702
        -27.996098 -6.3213897 2.4028623 -28.99569 -6.9089565 1.9632331
        -30.011242 -7.5696793 1.4715419 -31.034492 -8.31303 0.927733
        -32.05497 -9.149246 0.33342603 -33.059765 -10.088971 -0.30771178
        -34.033245 -11.14255 -0.9896716 -34.956703 -12.318811 -1.7038097
        -35.807934 -13.623165 -2.4384558 -36.5609 -15.054836 -3.1781738
        -37.185947 -16.603336 -3.902422 -37.65129 -18.244421 -4.583473
        -37.92672 -19.93637 -5.1839085 -37.990158 -21.61774 -5.6544895
        -37.83691 -23.20815 -5.933774 -37.490173 -24.61356 -5.9508996
        -37.00974 -25.736279 -5.632249 -36.49544 -26.48862 -4.91125
        -0.098903 -0.40384293 0.41609716 -0.08683133 -0.42852974 0.4035654
        -0.06840038 -0.448493 0.39455986 -0.045821667 -0.46192932 0.39014435
        -0.021772385 -0.4680872 0.3906045 0.0012183189 -0.46728706 0.39548564
        0.021226406 -0.46064186 0.40380335 0.037141323 -0.44970894 0.41434085
        0.048615456 -0.4361024 0.4259196 0.055892467 -0.42126846 0.4375583
        0.059566975 -0.40632486 0.4485554 -9.473852 -1.1588162 3.2486515
        -9.799601 -1.1904303 3.3324976 -10.134929 -1.223568 3.4168255
        -10.480143 -1.2584095 3.50138 -10.835595 -1.2951609 3.5858748
        -11.201687 -1.3340573 3.669989 -11.578882 -1.3753673 3.7533607
        -11.967708 -1.4193956 3.8355834 -12.368769 -1.4664881 3.9161956
        -12.782749 -1.5170367 3.9946742 -13.210424 -1.5714836 4.0704246
        -13.652667 -1.630328 4.1427693 -14.110446 -1.6941317 4.2109327
        -14.584839 -1.7635269 4.2740316 -15.077023 -1.8392236 4.331057
        -15.588276 -1.9220185 4.380861 -16.119978 -2.012806 4.4221416
        -16.673586 -2.1125886 4.4534283 -17.250639 -2.2224925 4.4730716
        -17.852728 -2.3437824 4.4792323 -18.481478 -2.4778824 4.4698772
        -19.138535 -2.6263986 4.442776 -19.825531 -2.79115 4.3955007
        -20.54407 -2.9742038 4.32543 -21.295685 -3.1779182 4.229749
        -22.081818 -3.4049995 4.105449 -22.90376 -3.6585574 3.9493337
        -23.762611 -3.9421935 3.7579994 -24.659155 -4.260082 3.5278409
        -25.593752 -4.6170745 3.2550611 -26.566168 -5.0188212 2.935708
        -27.575333 -5.4719 2.5657547 -28.619104 -5.9839673 2.1412477
        -29.693968 -6.5639043 1.6585052 -30.794727 -7.221966 1.1143893
        -31.914173 -7.9698634 0.5065912 -33.042694 -8.820748 -0.16608423
        -34.167747 -9.788956 -0.9034614 -35.273163 -10.889349 -1.7037629
        -36.338047 -12.136016 -2.5632472 -37.33553 -13.540074 -3.475509
        -38.231327 -15.106264 -4.429999 -38.9831 -16.82835 -5.4094076
        -39.54149 -18.683437 -6.385689 -39.85452 -20.62622 -7.315221
        -39.87659 -22.584728 -8.134368 -39.582146 -24.45983 -8.757789
        -38.982018 -26.130943 -9.081888 -38.13799 -27.469177 -8.995051
        -37.169582 -28.356812 -8.393947 -36.247784 -28.708569 -7.2018905
        -0.287966 -0.5780964 0.33178902 -0.08777857 -0.46573448 0.34632015
        -0.05698681 -0.4831848 0.33991814 -0.02455473 -0.49101257 0.3412528
        0.0058426857 -0.48976612 0.34940434 0.031559467 -0.4811287 0.36262488
        0.051240444 -0.4672966 0.3788867 0.06466961 -0.45045853 0.3963194
        0.07244682 -0.43248367 0.41345322 0.07557678 -0.414742 0.4293089
        -9.512558 -1.0701753 3.2460215 -9.840122 -1.0988399 3.3286262
        -10.177455 -1.1289071 3.4115987 -10.524887 -1.1605414 3.4946814
        -10.882799 -1.193932 3.5775838 -11.251628 -1.2292949 3.6599824
        -11.631872 -1.2668761 3.7415118 -12.0241 -1.3069556 3.8217602
        -12.428961 -1.349851 3.9002612 -12.847194 -1.3959228 3.976486
        -13.279629 -1.4455781 4.0498314 -13.727201 -1.4992775 4.119608
        -14.190952 -1.55754 4.185028 -14.672038 -1.6209512 4.24519
        -15.171724 -1.6901702 4.2990627 -15.691389 -1.7659392 4.345469
        -16.23252 -1.8490934 4.3830705 -16.796701 -1.9405739 4.4103527
        -17.38561 -2.0414417 4.425609 -18.000996 -2.1528947 4.4269323
        -18.64467 -2.2762895 4.412204 -19.318487 -2.4131658 4.379087
        -20.024326 -2.565281 4.3250256 -20.764072 -2.734646 4.247236
        -21.539598 -2.9235797 4.1426983 -22.352741 -3.1347578 4.0081587
        -23.205267 -3.3713005 3.840095 -24.09882 -3.6368537 3.6347005
        -25.034851 -3.9356973 3.3878617 -26.014492 -4.2728753 3.0951335
        -27.038418 -4.6543493 2.7517462 -28.106627 -5.087185 2.352639
        -29.218216 -5.5797586 1.8925424 -30.371088 -6.1420045 1.3660955
        -31.561638 -6.785671 0.76799965 -32.784348 -7.5245495 0.09315634
        -34.03126 -8.374624 -0.66323584 -35.29113 -9.353985 -1.5056301
        -36.548187 -10.482316 -2.4380498 -37.78026 -11.779652 -3.4637675
        -38.95627 -13.264011 -4.5843096 -40.03339 -14.947468 -5.7971745
        -40.954865 -16.830452 -7.09161 -41.64997 -18.894226 -8.442062
        -42.038723 -21.09252 -9.799862 -42.043427 -23.344347 -11.085049
        -41.607895 -25.531082 -12.181847 -40.7224 -27.50187 -12.94217
        -39.44744 -29.089987 -13.200534 -37.9268 -30.13961 -12.800062
        -36.380432 -30.536892 -11.62357 -35.074356 -30.235195 -9.618884
        -0.11308146 -0.47608566 0.28409195 -0.07150984 -0.4988861 0.2746563
        -0.028144836 -0.5092335 0.27721977 0.011691093 -0.5080118 0.2900548
        0.044412613 -0.49760818 0.31019974 0.06846142 -0.48101902 0.33439255
        0.08390522 -0.46112442 0.35975194 0.091893196 -0.44025183 0.3841604
        0.09402752 -0.42002487 0.4063 -9.546435 -0.9780004 3.2430737
        -9.875619 -1.0034956 3.3245711 -10.214739 -1.0302547 3.4063382
        -10.564152 -1.0584263 3.4881134 -10.924264 -1.0881803 3.5696042
        -11.295542 -1.119711 3.6504834 -11.678517 -1.1532397 3.730383
        -12.073795 -1.189019 3.808887 -12.482069 -1.2273351 3.885525
        -12.904121 -1.2685128 3.9597619 -13.340837 -1.3129205 4.030987
        -13.79321 -1.3609742 4.098501 -14.262347 -1.4131447 4.1615043
        -14.749477 -1.4699636 4.2190776 -15.255948 -1.5320307 4.2701693
        -15.783233 -1.6000234 4.3135757 -16.33292 -1.6747066 4.3479247
        -16.90672 -1.7569447 4.371659 -17.506433 -1.8477163 4.38302
        -18.133976 -1.9481318 4.380036 -18.79133 -2.0594547 4.360505
        -19.480566 -2.1831279 4.3219924 -20.2038 -2.320808 4.2618146
        -20.96321 -2.4744043 4.177031 -21.761013 -2.6461356 4.0644255
        -22.599459 -2.8385837 3.9204948 -23.480804 -3.0547867 3.7413967
        -24.407291 -3.2983286 3.5229206 -25.381083 -3.573465 3.2604303
        -26.404171 -3.8852708 2.9488165 -27.47827 -4.239826 2.5824523
        -28.604628 -4.6444435 2.1551707 -29.78383 -5.1079416 1.6602635
        -31.015574 -5.640979 1.0904962 -32.298332 -6.256418 0.43808442
        -33.628956 -6.969728 -0.30536467 -35.001984 -7.799315 -1.1490381
        -36.408543 -8.766678 -2.1031723 -37.834522 -9.89614 -3.1792872
        -39.257763 -11.213807 -4.39004 -40.644104 -12.745249 -5.74809
        -41.94261 -14.511265 -7.263014 -43.081104 -16.521233 -8.935237
        -43.964226 -18.763752 -10.74617 -44.477444 -21.19528 -12.64502
        -44.50091 -23.7291 -14.53476 -43.93554 -26.228653 -16.262295
        -42.7394 -28.511387 -17.620514 -40.965603 -30.367916 -18.36871
        -38.786125 -31.597254 -18.27271 -36.48537 -32.050453 -17.15578
        -34.41684 -31.667446 -14.942104 -32.93364 -30.491673 -11.67344
        -0.09069061 -0.50296783 0.19396114 -0.033463478 -0.51721 0.1978836
        0.01811409 -0.5170927 0.21693897 0.059286118 -0.50583935 0.24630451
        0.088321686 -0.48736763 0.2808857 0.1058073 -0.46527576 0.3164413
        0.11369038 -0.44237137 0.35000658 0.11435699 -0.4204979 0.37988985
        -9.575543 -0.8828412 3.2400045 -9.906142 -0.90497667 3.3205338
        -10.246825 -0.9282228 3.401248 -10.597972 -0.9527098 3.4818828
        -10.960012 -0.9785869 3.5621445 -11.333437 -1.006025 3.641703
        -11.718808 -1.0352184 3.7201867 -12.116769 -1.0663888 3.7971778
        -12.528043 -1.0997885 3.8722012 -12.953458 -1.1357034 3.9447165
        -13.393948 -1.1744581 4.0141068 -13.850554 -1.2164199 4.079663
        -14.32445 -1.2620052 4.140575 -14.816924 -1.3116846 4.1959076
        -15.329405 -1.3659906 4.2445917 -15.863448 -1.425526 4.2853985
        -16.42074 -1.4909731 4.3169255 -17.003096 -1.5631056 4.3375764
        -17.612455 -1.6428024 4.345545 -18.250866 -1.7310652 4.3387976
        -18.920488 -1.8290384 4.3150597 -19.623589 -1.9380361 4.2718015
        -20.362524 -2.0595746 4.2062225 -21.139751 -2.195413 4.1152344
        -21.957827 -2.3476098 3.9954326 -22.819408 -2.5185747 3.8430746
        -23.727255 -2.7111695 3.6540134 -24.684216 -2.9287977 3.4236412
        -25.693192 -3.1755376 3.1468112 -26.75709 -3.4563072 2.8177497
        -27.878735 -3.7770662 2.429964 -29.060753 -4.1450744 1.97615
        -30.305426 -4.5692186 1.4480965 -31.614517 -5.0604105 0.836553
        -32.989014 -5.6320653 0.13102025 -34.428722 -6.300636 -0.6805948
        -35.93152 -7.086158 -1.6125207 -37.492004 -8.012659 -2.6818225
        -39.09913 -9.108217 -3.909121 -40.732388 -10.404262 -5.3188605
        -42.356236 -11.933524 -6.938243 -43.91295 -13.725847 -8.793543
        -45.315094 -15.800949 -10.90207 -46.44044 -18.15753 -13.258392
        -47.1341 -20.75904 -15.814754 -47.2237 -23.518108 -18.458254
        -46.552994 -26.285149 -20.992544 -45.033134 -28.848944 -23.135376
        -42.70042 -30.957453 -24.544743 -39.757336 -32.36167 -24.878277
        -36.569557 -32.87373 -23.873932 -33.6055 -32.418022 -21.421747
        -31.33357 -31.052528 -17.593145 -28.320005 -27.243725 -11.849842
        -0.042096138 -0.5078354 0.10553646 0.02368164 -0.51081085 0.13198757
        0.07480717 -0.50064945 0.17265129 0.10948944 -0.4821844 0.21993685
        0.12909031 -0.4597082 0.2677784 0.13661861 -0.4364419 0.31218028
        0.13546276 -0.4144144 0.35105634 -9.599958 -0.7852065 3.2370372
        -9.931762 -0.80382097 3.3167405 -10.273777 -0.82337946 3.3965576
        -10.626402 -0.8439927 3.4762232 -10.990088 -0.8657877 3.5554407
        -11.365348 -0.8889095 3.6338782 -11.75277 -0.9135239 3.711163
        -12.153024 -0.9398195 3.7868733 -12.566869 -0.96801126 3.8605309
        -12.995168 -0.99834293 3.931591 -13.438894 -1.0310916 3.9994302
        -13.899139 -1.0665715 4.0633335 -14.377125 -1.1051385 4.1224785
        -14.874201 -1.1471963 4.1759195 -15.391861 -1.1932023 4.222568
        -15.931737 -1.2436748 4.261176 -16.495602 -1.2992029 4.2903132
        -17.085371 -1.3604559 4.308349 -17.703093 -1.4281963 4.3134346
        -18.350954 -1.5032959 4.303482 -19.03127 -1.5867555 4.27615
        -19.746485 -1.6797286 4.228824 -20.499178 -1.7835525 4.158598
        -21.292074 -1.8997873 4.0622487 -22.128048 -2.0302677 3.9362
        -23.010149 -2.1771564 3.7764897 -23.941612 -2.3430371 3.5786839
        -24.925879 -2.531007 3.337807 -25.96658 -2.7448063 3.0482278
        -27.067537 -2.9889858 2.7035375 -28.232702 -3.2691147 2.2964067
        -29.466131 -3.5920544 1.8184155 -30.771894 -3.9663062 1.2598478
        -32.15399 -4.4024534 0.60940814 -33.616203 -4.9137087 -0.14622247
        -35.161716 -5.516553 -1.0230579 -36.792408 -6.2314477 -2.0407774
        -38.507305 -7.083486 -3.224009 -40.29973 -8.10278 -4.603713
        -42.152576 -9.3242 -6.218098 -44.031 -10.785792 -8.112006
        -45.87258 -12.524992 -10.332886 -47.576115 -14.571386 -12.920992
        -48.992126 -16.935036 -15.891336 -49.921425 -19.589937 -19.206165
        -50.13024 -22.454514 -22.74076 -49.39122 -25.37495 -26.252089
        -47.55224 -28.121029 -29.367718 -44.62064 -30.406736 -31.616646
        -40.829075 -31.941109 -32.513245 -36.640247 -32.50025 -31.679394
        -32.66554 -31.993671 -28.957977 -29.517834 -30.492512 -24.460905
        -27.660763 -28.204494 -18.524265 -0.056451797 -0.4736786 0.007003784
        0.025846481 -0.48268318 0.040872574 0.08844566 -0.47676468 0.09390354
        0.12952709 -0.4613924 0.15529823 0.15149975 -0.44140816 0.21671343
        0.15869808 -0.42033052 0.2729478 0.1556549 -0.4003191 0.3214953
        -9.619763 -0.68557084 3.2343957 -9.952555 -0.70053095 3.3134189
        -10.295667 -0.71625704 3.3924987 -10.649508 -0.7328393 3.471368
        -11.014549 -0.7503809 3.5497293 -11.391322 -0.769 3.6272488
        -11.780437 -0.78883135 3.7035518 -12.182582 -0.8100286 3.7782142
        -12.598551 -0.8327667 3.8507552 -13.029234 -0.8572447 3.9206262
        -13.475638 -0.8836885 3.9871986 -13.938898 -0.9123547 4.0497518
        -14.420272 -0.94353455 4.1074543 -14.921166 -0.9775587 4.15935
        -15.443129 -1.014802 4.204336 -15.987854 -1.0556908 4.241146
        -16.557192 -1.1007098 4.2683268 -17.153141 -1.1504116 4.284219
        -17.777847 -1.205427 4.2869363 -18.433615 -1.2664798 4.2743464
        -19.122894 -1.3344029 4.244049 -19.848288 -1.41016 4.1933575
        -20.612577 -1.4948728 4.119274 -21.418713 -1.5898554 4.0184574
        -22.269863 -1.6966615 3.8871825 -23.16942 -1.817129 3.7212927
        -24.121067 -1.9534683 3.5161033 -25.12878 -2.1083431 3.266306
        -26.196873 -2.284994 2.9658384 -27.330013 -2.4873898 2.607717
        -28.533243 -2.7204282 2.1838422 -29.811985 -2.990199 1.68476
        -31.17207 -3.3043246 1.0993402 -32.619743 -3.6723974 0.41432965
        -34.16161 -4.106544 -0.38633364 -35.80443 -4.6221104 -1.322531
        -37.554382 -5.2384424 -2.4194374 -39.41548 -5.979702 -3.7094486
        -41.386402 -6.8755236 -5.2343674 -43.454876 -7.961154 -7.047239
        -45.58876 -9.27645 -9.212458 -47.723495 -10.862787 -11.801907
        -49.746704 -12.7565 -14.883722 -51.483498 -14.977468 -18.500076
        -52.689793 -17.511822 -22.630943 -53.065605 -20.29013 -27.146128
        -52.302162 -23.166441 -31.75666 -50.17002 -25.909271 -35.99027
        -46.634747 -28.219368 -39.224075 -41.95561 -29.78366 -40.79726
        -36.703053 -30.356644 -40.1861 -31.653713 -29.838148 -37.173115
        -27.58841 -28.307503 -31.920956 -25.084469 -25.994377 -24.906708
        -24.397755 -23.202312 -16.753056 0.02110672 -0.42811108 -0.046281815
        0.09650993 -0.43044853 0.018108368 0.14491844 -0.42224026 0.093138695
        0.16990471 -0.40848684 0.16784763 0.17724228 -0.3928175 0.23566294
        0.17273617 -0.37747955 0.2936077 -9.635032 -0.58437914 3.2322843
        -9.968594 -0.5955786 3.3107772 -10.312559 -0.6073569 3.389282
        -10.667352 -0.6197826 3.4675314 -11.033451 -0.6329339 3.5452263
        -11.411406 -0.64690053 3.622032 -11.80184 -0.6617849 3.697572
        -12.205468 -0.6777037 3.7714205 -12.623099 -0.69479 3.8430943
        -13.05565 -0.71319526 3.9120421 -13.504154 -0.73309153 3.9776323
        -13.969775 -0.7546745 4.039138 -14.453812 -0.77816635 4.095721
        -14.957705 -0.8038195 4.1464167 -15.48305 -0.83192104 4.1901116
        -16.031593 -0.86279744 4.225524 -16.605244 -0.8968207 4.251182
        -17.206068 -0.9344157 4.265404 -17.836294 -0.9760686 4.2662745
        -18.498316 -1.0223382 4.251623 -19.194696 -1.0738692 4.219003
        -19.928175 -1.1314104 4.1656685 -20.701687 -1.195835 4.0885468
        -21.518387 -1.2681725 3.984199 -22.381668 -1.3496349 3.8487854
        -23.295235 -1.4416755 3.6779802 -24.263126 -1.5460398 3.4668925
        -25.289787 -1.6648443 3.2099416 -26.380112 -1.8006755 2.9006994
        -27.539509 -1.9567199 2.5316966 -28.773966 -2.1369348 2.0941806
        -30.090124 -2.3462734 1.5778036 -31.495388 -2.5909827 0.970207
        -32.998047 -2.8789957 0.25641054 -34.60734 -3.2204337 -0.5820952
        -36.33337 -3.6282434 -1.5687015 -38.186493 -4.118946 -2.733631
        -40.175705 -4.7134666 -4.1165338 -42.305283 -5.4378934 -5.769537
        -44.568493 -6.3238964 -7.760085 -46.93731 -7.408245 -10.172058
        -49.347298 -8.7305765 -13.102384 -51.678253 -10.328112 -16.649105
        -53.733784 -12.225708 -20.885254 -55.22863 -14.42004 -25.814402
        -55.79834 -16.858353 -31.307852 -55.050713 -19.416323 -37.036423
        -52.67241 -21.885754 -42.428345 -48.57836 -23.987686 -46.700485
        -43.04802 -25.422852 -49.0003 -36.76017 -25.95268 -48.641098
        -30.66384 -25.478771 -45.336544 -25.715971 -24.078697 -39.30583
        -22.610348 -21.976608 -31.183477 -21.629837 -19.46518 -21.786495
        0.0055942535 -0.34712982 -0.11553001 0.09475708 -0.36169338 -0.043886185
        0.15155602 -0.36483765 0.04156971 0.18065643 -0.36121988 0.12703991
        0.18922234 -0.35431194 0.20443773 0.18428326 -0.3463459 0.2702427
        -9.645825 -0.48205006 3.2308729 -9.979937 -0.48940971 3.3089874
        -10.324512 -0.49715424 3.387083 -10.679983 -0.5053294 3.464891
        -11.046837 -0.5139877 3.5421112 -11.425636 -0.52318954 3.6184087
        -11.817016 -0.5330035 3.6934052 -12.221704 -0.54350823 3.7666745
        -12.640525 -0.5547931 3.8377316 -13.074412 -0.5669601 3.9060228
        -13.524421 -0.58012503 3.9709134 -13.991735 -0.59442 4.031673
        -14.477681 -0.60999495 4.087459 -14.983728 -0.62702036 4.1373005
        -15.511503 -0.64569044 4.1800747 -16.062792 -0.6662264 4.2144904
        -16.639545 -0.68888044 4.239062 -17.24388 -0.71394116 4.25209
        -17.878084 -0.7417396 4.2516375 -18.544622 -0.77265644 4.235507
        -19.246138 -0.8071323 4.2012177 -19.985468 -0.8456795 4.145981
        -20.765669 -0.8888974 4.066667 -21.590036 -0.9374943 3.9597669
        -22.462152 -0.9923054 3.8213496 -23.385937 -1.0543354 3.6469693
        -24.365713 -1.1247952 3.43158 -25.406275 -1.2051569 3.1693938
        -26.512964 -1.2972256 2.8537073 -27.691763 -1.4032335 2.476683
        -28.949394 -1.525965 2.02907 -30.29346 -1.6689184 1.4998317
        -31.732613 -1.8365307 0.8756528 -33.27677 -2.034467 0.14020139
        -34.937325 -2.2700012 -0.7269674 -36.72711 -2.5525002 -1.7520512
        -38.65998 -2.8940177 -2.96936 -40.74922 -3.3099625 -4.4244795
        -43.00403 -3.8197565 -6.1781054 -45.422874 -4.4473023 -8.309837
        -47.982086 -5.2208405 -10.920284 -50.61878 -6.1715665 -14.128435
        -53.20803 -7.3299837 -18.05936 -55.537525 -8.718647 -22.815376
        -57.28898 -10.340126 -28.424498 -58.043526 -12.160069 -34.76448
        -57.335503 -14.088549 -41.475708 -54.774445 -15.968044 -47.900967
        -50.22486 -17.581293 -53.11235 -43.978878 -18.690495 -56.07877
        -36.809544 -19.103817 -55.958675 -29.820652 -18.741323 -52.39938
        -24.12796 -17.664993 -45.673527 -20.528362 -16.055248 -36.56455
        -19.325006 -14.145885 -26.070694 -0.023443222 -0.2468729 -0.15207481
        0.079566956 -0.2759161 -0.0805397 0.14574242 -0.2933588 0.009126663
        0.18042374 -0.30282688 0.10036755 0.19185829 -0.30727935 0.18349028
        0.18810177 -0.30882764 0.2542467 -9.652189 -0.37898156 3.2302873
        -9.986628 -0.38244912 3.308178 -10.331566 -0.3861027 3.3860312
        -10.687438 -0.3899651 3.4635773 -11.054742 -0.39406246 3.5405164
        -11.434043 -0.39842477 3.6165123 -11.825986 -0.40308642 3.6911864
        -12.231305 -0.40808663 3.7641118 -12.650833 -0.41347027 3.8348022
        -13.085519 -0.41928837 3.9027028 -13.536426 -0.4255992 3.9671772
        -14.004752 -0.43246904 4.0274925 -14.491838 -0.43997347 4.0828037
        -14.999171 -0.44819862 4.132135 -15.528399 -0.45724228 4.1743593
        -16.081331 -0.46721658 4.2081785 -16.659943 -0.47824928 4.2320995
        -17.26638 -0.49048668 4.2444105 -17.902971 -0.5040972 4.2431636
        -18.57222 -0.5192747 4.2261434 -19.27682 -0.5362439 4.190848
        -20.019669 -0.5552667 4.1344614 -20.803894 -0.5766497 4.0538216
        -21.632885 -0.60075694 3.9453738 -22.510332 -0.62801576 3.8051314
        -23.440294 -0.65894365 3.6285768 -24.427265 -0.6941638 3.4105647
        -25.476265 -0.7344352 3.1451807 -26.592907 -0.78068936 2.8255503
        -27.783537 -0.8340797 2.443607 -29.05534 -0.8960454 1.9897859
        -30.416529 -0.9683981 1.4526217 -31.876553 -1.0534364 0.8181933
        -33.446384 -1.1540997 0.06931257 -35.138786 -1.2741673 -0.81570345
        -36.968414 -1.4185156 -1.8648546 -38.951416 -1.5934306 -3.1150951
        -41.103943 -1.8069754 -4.6158843 -43.43859 -2.0693479 -6.4335628
        -45.95747 -2.3931568 -8.655809 -48.640213 -2.7933989 -11.394508
        -51.425583 -3.286806 -14.783722 -54.186386 -3.890005 -18.967365
        -56.700684 -4.61581 -24.068718 -58.62906 -5.466921 -30.13426
        -59.516464 -6.4268394 -37.04857 -58.847054 -7.4494452 -44.433765
        -56.17585 -8.451644 -51.575146 -51.33 -9.31654 -57.443874
        -44.607582 -9.914445 -60.88156 -36.84577 -10.140492 -60.934628
        -29.25599 -9.9506645 -57.201668 -23.06504 -9.377154 -49.993572
        -19.14103 -8.518341 -40.20093 -17.799402 -7.5020227 -28.951439
        -5.9706936 -2.1236382 -5.5244923 0.04962349 -0.1841538 -0.08307457
        0.12556458 -0.21610713 0.0024375916 0.16726494 -0.23946834 0.092567444
        0.18344879 -0.25625396 0.17609549 0.18278599 -0.2682178 0.24785423
        -9.654154 -0.2755564 3.2306037 -9.988694 -0.27510634 3.3084264
        -10.333743 -0.27464113 3.3862052 -10.689742 -0.27416033 3.4636705
        -11.057185 -0.2736633 3.5405223 -11.436644 -0.27314958 3.616424
        -11.828763 -0.27261865 3.6909971 -12.234281 -0.27207002 3.7638142
        -12.654033 -0.2715033 3.8343883 -13.088969 -0.2709181 3.9021647
        -13.540159 -0.27031425 3.966506 -14.008805 -0.2696914 4.0266786
        -14.496253 -0.2690496 4.0818367 -15.003996 -0.26838902 4.1310024
        -15.533686 -0.2677099 4.173047 -16.08714 -0.26701295 4.2066708
        -16.666342 -0.26629904 4.2303767 -17.27345 -0.26556957 4.2424517
        -17.910803 -0.2648264 4.2409396 -18.580915 -0.26407176 4.2236214
        -19.286499 -0.26330903 4.1879883 -20.030474 -0.26254195 4.131214
        -20.815987 -0.26177543 4.050126 -21.646458 -0.2610167 3.9411538
        -22.52561 -0.2602702 3.800293 -23.457552 -0.2595453 3.6229987
        -24.446835 -0.25885108 3.4040964 -25.498537 -0.25819755 3.1376276
        -26.61838 -0.2575947 2.8166611 -27.812817 -0.25705165 2.4330542
        -29.089188 -0.25657445 1.977138 -30.4559 -0.25616327 1.4373059
        -31.922674 -0.25580677 0.799438 -33.500824 -0.2554746 0.046061397
        -35.20357 -0.2551067 -0.8449115 -37.046173 -0.25459316 -1.9020768
        -39.045547 -0.25375244 -3.1632607 -41.218796 -0.25229326 -4.679208
        -43.579685 -0.24977039 -6.5181246 -46.131542 -0.24552223 -8.770378
        -48.85517 -0.23861384 -11.551626 -51.68994 -0.22781318 -15.000967
        -54.508003 -0.21160766 -19.268684 -57.08437 -0.1884874 -24.485203
        -59.072655 -0.15743619 -30.703394 -60.00592 -0.11875734 -37.81051
        -59.351486 -0.07486653 -45.422924 -56.64595 -0.030598521 -52.806976
        -51.703373 0.0074445307 -58.899837 -44.82302 0.03217557 -62.49982
        -36.862797 0.036830693 -62.614605 -29.071095 0.01847887 -58.825428
        -22.71263 -0.016918957 -51.45565 -18.679443 -0.062186986 -41.432255
        -17.291265 -0.10997713 -29.927109 -8.507595 -0.097833544 -8.329912
        0.0070858 -0.10070656 -0.0488472 0.09198761 -0.14390816 0.023935318
        0.14144325 -0.17913754 0.10561466 0.16394234 -0.20703349 0.18371773
        0.16819 -0.22868809 0.25209618 -9.65173 -0.17214961 3.2318478
        -9.986144 -0.16778308 3.309758 -10.331057 -0.16320041 3.387631
        -10.686902 -0.1583777 3.4651968 -11.054176 -0.15328781 3.5421555
        -11.433446 -0.14789964 3.618171 -11.825356 -0.14217791 3.6928644
        -12.230636 -0.13608241 3.7658086 -12.650125 -0.1295675 3.8365176
        -13.084764 -0.12258141 3.9044359 -13.535623 -0.11506536 3.9689274
        -14.003896 -0.10695268 4.0292587 -14.490921 -0.09816781 4.0845847
        -14.99819 -0.08862501 4.1339293 -15.527345 -0.07822693 4.1761656
        -16.080194 -0.06686305 4.2099943 -16.658716 -0.054407418 4.233922
        -17.265053 -0.040716402 4.2462387 -17.901531 -0.025625587 4.244993
        -18.57065 -0.008945867 4.2279716 -19.275105 0.009541057 4.1926703
        -20.017788 0.03008905 4.1362743 -20.801826 0.052994862 4.05562
        -21.630602 0.078607656 3.9471533 -22.5078 0.10734553 3.8068876
        -23.437471 0.13970685 3.630305 -24.424109 0.17629594 3.4122624
        -25.47271 0.21785098 3.1468465 -26.588884 0.26528227 2.8271878
        -27.778957 0.31972322 2.4452248 -29.050093 0.38259834 1.9914014
        -30.410473 0.45571616 1.4542677 -31.869507 0.54139197 0.81992817
        -33.43812 0.64261717 0.0712316 -35.129005 0.76328146 -0.81344795
        -36.956734 0.90846026 -1.8620216 -38.93733 1.0847781 -3.1113024
        -41.08679 1.3008348 -4.6105456 -43.417526 1.5676596 -6.4257693
        -45.931404 1.8990839 -8.644167 -48.607838 2.311832 -11.376932
        -51.385395 2.824903 -14.757145 -54.136856 3.4576697 -18.927402
        -56.64071 4.2256737 -24.00946 -58.558662 5.1333604 -30.048296
        -59.43801 6.1635537 -36.9278 -58.766335 7.2655964 -44.27121
        -56.102524 8.347537 -51.36789 -51.276173 9.280565 -57.19637
        -44.584076 9.922213 -60.6075 -36.857647 10.155815 -60.65515
        -29.301773 9.933269 -56.93986 -23.136406 9.296014 -49.76801
        -19.225368 8.35544 -40.021202 -17.884657 7.2525935 -28.817986
        -6.0672836 1.9314206 -5.39777 -0.042369843 -0.038868904 0.017066956
        0.04901886 -0.08716869 0.070705414 0.10575867 -0.12969017 0.13786411
        0.13522148 -0.16540074 0.20546818 0.14556026 -0.19442725 0.26651144
        -9.644904 -0.06913609 3.233992 -9.9789715 -0.060880944 3.3121464
        -10.323498 -0.052211143 3.3902814 -10.678914 -0.043079812 3.468129
        -11.045711 -0.033433314 3.5453887 -11.424447 -0.023210559 3.6217248
        -11.815758 -0.012341792 3.6967602 -12.220372 -0.0007476313 3.7700672
        -12.639112 0.01166214 3.841161 -13.07291 0.024990093 3.9094877
        -13.522821 0.039352663 3.9744124 -13.990029 0.054881934 4.035204
        -14.475857 0.0717279 4.0910196 -14.981773 0.09006066 4.1408877
        -15.509403 0.11007355 4.183686 -16.060532 0.13198625 4.2181206
        -16.637104 0.15604886 4.2427073 -17.24124 0.18254708 4.255745
        -17.87522 0.21180762 4.255296 -18.541502 0.24420619 4.239163
        -19.24273 0.28017652 4.2048635 -19.981735 0.32022238 4.1496077
        -20.76156 0.36493263 4.0702667 -21.585505 0.41500008 3.9633286
        -22.457129 0.47124922 3.824864 -23.380346 0.5346647 3.6504302
        -24.359457 0.60643613 3.4349794 -25.399242 0.6880128 3.1727304
        -26.505016 0.781175 2.8569846 -27.682724 0.8881303 2.4799178
        -28.939054 1.0116402 2.0322957 -30.281546 1.1551915 1.5031123
        -31.71878 1.3232219 0.8790974 -33.260582 1.5214263 0.1439901
        -34.918213 1.7571554 -0.7225444 -36.704353 2.0399268 -1.7465385
        -38.63263 2.3820539 -2.9620461 -40.71605 2.7993674 -4.414262
        -42.963478 3.311945 -6.1632957 -45.37297 3.9446487 -8.28787
        -47.920483 4.727062 -10.887341 -50.54284 5.6921177 -14.078946
        -53.115177 6.872367 -17.985474 -55.426018 8.292302 -22.706606
        -57.159294 9.955572 -28.267914 -57.90024 11.826991 -34.546124
        -57.189285 13.812944 -41.18391 -54.642487 15.749237 -47.53132
        -50.1284 17.410034 -52.673286 -43.936916 18.548658 -55.594265
        -36.831818 18.965948 -55.465263 -29.904009 18.579994 -51.93686
        -24.257084 17.458103 -45.27393 -20.681147 15.789482 -36.244762
        -19.480297 13.817287 -25.831839 -0.2173233 0.0369215 0.10710526
        -0.09113884 -0.00664711 0.10332489 0.0027713776 -0.052831173 0.13522816
        0.06485939 -0.09675455 0.18448925 0.10070229 -0.13573074 0.2383132
        0.11735344 -0.16874218 0.28922176 -9.6336565 0.033101663 3.2369604
        -9.967151 0.045190796 3.3155124 -10.311043 0.057888262 3.3940768
        -10.665755 0.071263336 3.4723856 -11.031769 0.085395366 3.5501397
        -11.409629 0.10037492 3.6270034 -11.799962 0.11630525 3.7026012
        -12.20348 0.13330391 3.7765062 -12.620991 0.15150467 3.8482356
        -13.053409 0.17105934 3.9172368 -13.501768 0.19214049 3.9828775
        -13.967231 0.21494378 4.044431 -14.451092 0.2396912 4.101059
        -14.954792 0.26663467 4.1517954 -15.479922 0.29606003 4.1955256
        -16.028229 0.3282921 4.230968 -16.601612 0.36370048 4.2566495
        -17.202139 0.4027064 4.2708864 -17.832031 0.4457918 4.2717633
        -18.49368 0.4935096 4.257108 -19.189638 0.54649717 4.2244735
        -19.922638 0.6054937 4.171112 -20.695602 0.6713614 4.09395
        -21.511677 0.7451126 3.989547 -22.374239 0.8279471 3.854065
        -23.286976 0.9212957 3.6831794 -24.2539 1.0268803 3.472001
        -25.279432 1.14679 3.2149553 -26.368427 1.2835817 2.9056225
        -27.526249 1.4404099 2.536551 -28.758827 1.6211987 2.0990129