<?xml version="1.0"?>
<VTKFile type="StructuredGrid" version="0.1" byte_order="LittleEndian" header_type="UInt32" compressor="vtkZLibDataCompressor">
  <StructuredGrid WholeExtent="0 60 0 20 0 20">
  <Piece Extent="0 60 0 20 0 20">
    <PointData Vectors="B_total">
      <DataArray type="Float32" Name="B_total" NumberOfComponents="3" format="ascii" RangeMin="0" RangeMax="66298.65166467291">
        -10.660131 -1.5991884 3.1369846 -11.012285 -1.6430564 3.2261453
        -11.373229 -1.6884035 3.316109 -11.743124 -1.7353876 3.4065392
        -12.122169 -1.7841922 3.4970517 -12.510604 -1.8350292 3.58721
        -12.908724 -1.8881432 3.6765184 -13.316875 -1.9438133 3.7644162
        -13.73547 -2.0023584 3.8502688 -14.164997 -2.0641394 3.9333587
        -14.606015 -2.1295643 4.0128765 -15.059167 -2.199093 4.0879116
        -15.525179 -2.2732408 4.1574383 -16.004862 -2.3525858 4.2203074
        -16.49911 -2.4377725 4.2752333 -17.008892 -2.5295224 4.3207855
        -17.535242 -2.6286385 4.3553796 -18.079254 -2.736018 4.3772717
        -18.64205 -2.8526623 4.384555 -19.224766 -2.9796941 4.375162
        -19.828526 -3.1183734 4.3468738 -20.4544 -3.270121 4.297328
        -21.103376 -3.4365458 4.224039 -21.776314 -3.6194782 4.124418
        -22.473894 -3.8210087 3.995799 -23.196552 -4.0435376 3.835467
        -23.944408 -4.289829 3.6407003 -24.717155 -4.5630727 3.4087987
        -25.513922 -4.8669567 3.1371462 -26.333101 -5.205742 2.8232985
        -27.172138 -5.584351 2.4651074 -28.02726 -6.008452 2.0609097
        -28.893198 -6.484532 1.6097947 -29.76288 -7.0199604 1.1119516
        -30.627151 -7.62298 0.56909966 -31.47451 -8.3026 -0.015022993
        -32.290905 -9.068297 -0.63414836 -33.059605 -9.929403 -1.2789738
        -33.76109 -10.894039 -1.9366755 -34.37307 -11.967443 -2.5904055
        -34.870636 -13.149508 -3.2186332 -35.2268 -14.431536 -3.7941508
        -35.413895 -15.792414 -4.282532 -35.40651 -17.19469 -4.6400633
        -35.186577 -18.581543 -4.8115134 -34.750988 -19.87602 -4.728783
        -34.120888 -20.983904 -4.3116765 -33.350597 -21.801195 -3.471849
        -28.704672 -19.650402 -1.8171401 -0.09605837 -0.43973827 0.4326601
        -0.078419685 -0.4669609 0.42322493 -0.054746628 -0.4879074 0.4179077
        -0.027719498 -0.5006523 0.4175105 -0.00042676926 -0.5045166 0.4219823
        0.024328709 -0.5000944 0.43050134 0.044561863 -0.48893452 0.44175184
        0.05929613 -0.47307062 0.45427203 0.06848669 -0.45456553 0.46676767
        0.07275343 -0.4352045 0.47826904 0.07307768 -0.41632795 0.4881947
        0.07051897 -0.3988042 0.49630034 -10.710216 -1.4896518 3.12915
        -11.063805 -1.5297961 3.21632 -11.426326 -1.5712774 3.3041062
        -11.797967 -1.6142386 3.392165 -12.178952 -1.6588469 3.4801066
        -12.569555 -1.705295 3.5674875 -12.970101 -1.7538062 3.6538064
        -13.380975 -1.8046356 3.7384958 -13.802628 -1.8580753 3.8209136
        -14.235588 -1.914456 3.9003346 -14.680461 -1.9741535 3.9759417
        -15.137938 -2.037591 4.046812 -15.608797 -2.1052458 4.1119094
        -16.093904 -2.1776538 4.1700706 -16.594215 -2.2554169 4.219994
        -17.110762 -2.339209 4.260228 -17.644653 -2.4297879 4.2891655
        -18.197062 -2.5280035 4.3050313 -18.769197 -2.6348138 4.305882
        -19.362303 -2.7512991 4.2896047 -19.977621 -2.878686 4.2539186
        -20.616364 -3.0183706 4.1963835 -21.279696 -3.1719522 4.1144123
        -21.968678 -3.3412728 4.005284 -22.684233 -3.5284631 3.8661578
        -23.42709 -3.7360015 3.6940913 -24.197723 -3.966785 3.4860706
        -24.996243 -4.22421 3.2390196 -25.82227 -4.512267 2.9498477
        -26.674788 -4.835662 2.6155102 -27.55193 -5.199932 2.2331023
        -28.45074 -5.6116023 1.800004 -29.366894 -6.078332 1.3140827
        -30.29437 -6.6090565 0.77395624 -31.225124 -7.214079 0.17930456
        -32.1487 -7.9050655 -0.4687792 -33.05179 -8.694828 -1.1674249
        -33.917656 -9.596759 -1.9115858 -34.72549 -10.623723 -2.6935494
        -35.44952 -11.786175 -3.502195 -36.05823 -13.089287 -4.3217573
        -36.513905 -14.528877 -5.1296945 -36.773403 -16.086414 -5.8934793
        -36.79122 -17.7234 -6.566308 -36.526146 -19.376513 -7.0825768
        -35.952126 -20.955246 -7.3547254 -35.072605 -22.344332 -7.2738633
        -33.935257 -23.412834 -6.716256 -32.6419 -24.030256 -5.5563817
        -31.347605 -24.087076 -3.6839871 -0.10691118 -0.49437523 0.37889242
        -0.07460642 -0.5225048 0.36847734 -0.03732252 -0.53956795 0.36619616
        0.00021743774 -0.54460907 0.37203455 0.033797264 -0.5385523 0.38460302
        0.060581207 -0.52369785 0.4016676 0.079319954 -0.502965 0.4207902
        0.09022045 -0.47924328 0.4398396 0.094391346 -0.45488548 0.45730394
        0.09339666 -0.43158913 0.4723094 0.08882952 -0.41037488 0.48453736
        -10.745198 -1.373446 3.118947 -11.099763 -1.4096652 3.2042735
        -11.463384 -1.447076 3.290054 -11.836273 -1.4858067 3.3759415
        -12.218682 -1.526007 3.4615412 -12.61091 -1.567851 3.546407
        -13.013313 -1.6115389 3.630034 -13.42631 -1.6573014 3.7118504
        -13.850388 -1.7054023 3.791211 -14.286114 -1.7561411 3.8673868
        -14.734136 -1.8098589 3.9395554 -15.195189 -1.8669411 4.0067897
        -15.670103 -1.9278226 4.068046 -16.159796 -1.9929947 4.1221533
        -16.665277 -2.06301 4.167799 -17.187653 -2.1384919 4.2035203
        -17.728092 -2.220143 4.227691 -18.287851 -2.3087578 4.2385154
        -18.868237 -2.4052365 4.23402 -19.470594 -2.5106041 4.2120533
        -20.096294 -2.6260319 4.1702814 -20.746704 -2.7528675 4.1061954
        -21.423166 -2.8926682 4.0171127 -22.126966 -3.0472467 3.9001837
        -22.859297 -3.2187247 3.752396 -23.621225 -3.4095986 3.5705907
        -24.413614 -3.6228218 3.351449 -25.237064 -3.8619049 3.0915117
        -26.09179 -4.1310344 2.7871897 -26.977493 -4.435219 2.434792
        -27.893188 -4.7804646 2.0305789 -28.836975 -5.173972 1.5708442
        -29.805786 -5.6243715 1.0520304 -30.79507 -6.1419544 0.47087228
        -31.798414 -6.738885 -0.1754477 -32.807026 -7.429326 -0.88914514
        -33.80905 -8.229372 -1.6716657 -34.788574 -9.156605 -2.5234776
        -35.724216 -10.229078 -3.4436421 -36.58733 -11.463373 -4.4289017
        -37.339878 -12.871398 -5.4718285 -37.93263 -14.45566 -6.5574665
        -38.3047 -16.202883 -7.65802 -38.386272 -18.076447 -8.725637
        -38.10647 -20.00889 -9.684299 -37.408024 -21.896923 -10.423398
        -36.26824 -23.602304 -10.796762 -34.72253 -24.96203 -10.631441
        -32.882385 -25.809277 -9.748157 -30.937965 -26.002419 -7.990853
        -29.137903 -25.454292 -5.2563214 -0.10113811 -0.55558395 0.3002777
        -0.050105095 -0.5782585 0.29477787 0.001121521 -0.58500576 0.3024373
        0.046286583 -0.57720566 0.32093096 0.08135033 -0.55817604 0.34651613
        0.10483742 -0.5320034 0.37518835 0.11738873 -0.50255156 0.4035918
        0.12093067 -0.4728818 0.429402 0.1178503 -0.4450302 0.4513921
        0.11045027 -0.42013574 0.46918404 -10.767607 -1.2507375 3.1055071
        -11.12278 -1.2828511 3.1891165 -11.48712 -1.3160101 3.2730432
        -11.860858 -1.3503274 3.3569381 -12.244269 -1.3859355 3.4404051
        -12.637678 -1.4229884 3.5229964 -13.041469 -1.461664 3.604206
        -13.456089 -1.5021669 3.6834617 -13.88206 -1.5447317 3.760117
        -14.319984 -1.5896258 3.8334424 -14.77055 -1.6371534 3.9026148
        -15.234533 -1.6876595 3.966705 -15.712808 -1.7415348 4.024668
        -16.206345 -1.7992214 4.075329 -16.716208 -1.8612186 4.1173706
        -17.243557 -1.9280922 4.149322 -17.78964 -2.0004828 4.169546
        -18.355791 -2.0791187 4.1762323 -18.943405 -2.1648304 4.167384
        -19.553938 -2.2585692 4.140818 -20.188889 -2.3614311 4.094156
        -20.84978 -2.4746864 4.024825 -21.538145 -2.5998166 3.9300566
        -22.2555 -2.738561 3.8068805 -23.003328 -2.8929741 3.652121
        -23.783047 -3.0654984 3.4624004 -24.59596 -3.2590566 3.2341065
        -25.443197 -3.4771585 2.9633908 -26.32565 -3.7240462 2.6461527
        -27.243847 -4.00486 2.2780254 -28.197832 -4.3258553 1.8543763
        -29.186977 -4.694653 1.3703108 -30.209764 -5.1205373 0.82067746
        -31.263504 -5.614792 0.20005871 -32.343925 -6.1910305 -0.49726775
        -33.444584 -6.865488 -1.2774357 -34.555916 -7.657134 -2.1471033
        -35.663834 -8.587463 -3.1135411 -36.747555 -9.679665 -4.184391
        -37.776672 -10.956814 -5.36673 -38.70749 -12.438606 -6.6647224
        -39.479256 -14.13608 -8.074965 -40.01179 -16.04406 -9.578791
        -40.206913 -18.131416 -11.131196 -39.956825 -20.330374 -12.647588
        -39.16263 -22.527784 -13.991726 -37.763752 -24.563053 -14.970897
        -35.773834 -26.23827 -15.34572 -33.311768 -27.344023 -14.859821
        -30.611643 -27.698608 -13.286991 -27.997871 -27.190065 -10.48242
        -25.825054 -25.804794 -6.4167185 -0.067100525 -0.61047554 0.19972515
        0.0019292831 -0.6198063 0.20962048 0.061881065 -0.61065483 0.23638248
        0.10714817 -0.5875778 0.27391815 0.13607407 -0.55605316 0.31585765
        0.15010548 -0.52110195 0.35700583 0.15229702 -0.48646355 0.39399636
        0.14622498 -0.45453024 0.4251597 0.13509083 -0.4264865 0.45012403
        -10.780131 -1.1217794 3.0891066 -11.135639 -1.1496234 3.1711314
        -11.500408 -1.1783657 3.2533622 -11.874688 -1.2081044 3.335449
        -12.258774 -1.2389541 3.4169953 -12.653013 -1.2710485 3.4975545
        -13.057815 -1.3045424 3.5766206 -13.473654 -1.3396136 3.6536229
        -13.901082 -1.3764665 3.7279165 -14.340733 -1.4153347 3.7987738
        -14.793329 -1.4564841 3.8653731 -15.259686 -1.5002171 3.926787
        -15.740718 -1.546877 3.9819715 -16.237442 -1.5968529 4.029752
        -16.750975 -1.6505862 4.0688095 -17.282532 -1.7085788 4.09767
        -17.833431 -1.7714012 4.1146917 -18.405071 -1.8397045 4.1180515
        -18.998943 -1.9142362 4.1057377 -19.61661 -1.9958571 4.0755396
        -20.259693 -2.0855649 4.0250416 -20.929873 -2.1845238 3.9516149
        -21.628868 -2.2941012 3.8524113 -22.358433 -2.415915 3.7243512
        -23.120337 -2.5518928 3.5641046 -23.916365 -2.7043433 3.368085
        -24.748264 -2.876055 3.1323962 -25.617739 -3.070411 2.8528101
        -26.52639 -3.2915406 2.5247154 -27.475655 -3.544508 2.1430626
        -28.4667 -3.835546 1.7022972 -29.50033 -4.1723533 1.1962781
        -30.576807 -4.564445 0.6181501 -31.695625 -5.023568 -0.039837748
        -32.85511 -5.564149 -0.78662515 -34.051796 -6.20374 -1.632745
        -35.279285 -6.9633512 -2.5908332 -36.526436 -7.86751 -3.6761122
        -37.77449 -8.943748 -4.906558 -38.992905 -10.22112 -6.302128
        -40.133896 -11.727089 -7.882159 -41.126278 -13.482157 -9.659594
        -41.870193 -15.491392 -11.630619 -42.236042 -17.732786 -13.758972
        -42.07211 -20.143183 -15.955667 -41.22651 -22.605072 -18.058315
        -39.586266 -24.940115 -19.81891 -37.129765 -26.917536 -20.912333
        -33.977276 -28.283804 -20.976387 -30.414154 -28.812786 -19.683302
        -26.862411 -28.362759 -16.82304 -23.796314 -26.917671 -12.363419
        -21.628086 -24.592005 -6.4543343 0.001709938 -0.63998413 0.092515945
        0.079888344 -0.6307516 0.13008785 0.13733292 -0.60491085 0.1834116
        0.1723404 -0.5694008 0.24270678 0.18752003 -0.5303507 0.30030465
        0.1876049 -0.4921832 0.35143948 0.17762661 -0.4575324 0.3939968
        0.16191864 -0.4275794 0.42771226 -10.785439 -0.98700225 3.0709045
        -11.141087 -1.010427 3.1515033 -11.506078 -1.0346031 3.2322192
        -11.880674 -1.0596129 3.312703 -12.26519 -1.085553 3.3925598
        -12.659993 -1.1125364 3.471344 -13.065514 -1.1406937 3.5485518
        -13.482251 -1.1701753 3.6236153 -13.910782 -1.2011547 3.6958933
        -14.351768 -1.2338296 3.76466 -14.805962 -1.2684263 3.8290977
        -15.274212 -1.3052018 3.8882825 -15.757474 -1.344449 3.9411733
        -16.2568 -1.3865005 3.986598 -16.773357 -1.4317348 4.0232396
        -17.308413 -1.4805832 4.049624 -17.863342 -1.5335377 4.0641055
        -18.439615 -1.5911632 4.064854 -19.038807 -1.6541091 4.0498457
        -19.66257 -1.7231284 4.01685 -20.312656 -1.7990974 3.963417
        -20.990885 -1.8830452 3.8868718 -21.69916 -1.9761877 3.7842948
        -22.439459 -2.079971 3.6525068 -23.213829 -2.1961317 3.488038
        -24.024406 -2.3267622 3.287108 -24.873392 -2.47441 3.0455577
        -25.763048 -2.642191 2.7587981 -26.6957 -2.8339396 2.4217293
        -27.673693 -3.0544028 2.0286386 -28.699377 -3.3094857 1.5730658
        -29.775055 -3.6065583 1.0476221 -30.902895 -3.9548445 0.44372746
        -32.084763 -4.365878 -0.24877542 -33.321915 -4.8540416 -1.0421803
        -34.61433 -5.437133 -1.9516886 -35.95951 -6.136893 -2.996382
        -37.350307 -6.979335 -4.2002573 -38.77143 -7.9946213 -5.592964
        -40.194096 -9.216014 -7.2095313 -41.5686 -10.677237 -9.087794
        -42.815376 -12.407367 -11.261802 -43.81608 -14.422205 -13.748949
        -44.408512 -16.711308 -16.529015 -44.392014 -19.221264 -19.515104
        -43.551308 -21.837952 -22.521141 -41.705902 -24.37492 -25.237713
        -38.78282 -26.578175 -27.23543 -34.89379 -28.157616 -28.015526
        -30.379362 -28.846502 -27.112564 -25.779758 -28.473675 -24.22296
        -21.720047 -27.018288 -19.303606 -18.74667 -24.618328 -12.585477
        -4.455694 -6.049143 -1.1964798 0.09830856 -0.6271677 0.005560875
        0.16973114 -0.60154057 0.07806492 0.21137619 -0.565197 0.15837717
        0.22746658 -0.5251441 0.23565578 0.22483063 -0.48629665 0.3034613
        0.21027279 -0.45138693 0.359226 0.1894226 -0.42158294 0.40292045
        -10.785996 -0.8470447 3.0525901 -11.141665 -0.865918 3.131955
        -11.506738 -0.88539463 3.2113695 -11.881498 -0.9055413 3.2904854
        -12.266273 -0.9264364 3.3689096 -12.661444 -0.9481713 3.4461985
        -13.067461 -0.97085184 3.5218518 -13.484842 -0.99460053 3.5953038
        -13.914188 -1.019558 3.6659167 -14.356182 -1.0458851 3.73297
        -14.811604 -1.0737662 3.7956493 -15.281331 -1.1034113 3.853035
        -15.766349 -1.1350592 3.90409 -16.267748 -1.1689829 3.9476457
        -16.786732 -1.2054924 3.9823885 -17.324615 -1.2449427 4.006845
        -17.882822 -1.2877398 4.019368 -18.46289 -1.3343508 4.0181246
        -19.06646 -1.3853155 4.0010805 -19.695276 -1.4412612 3.9659889
        -20.351194 -1.502922 3.9103746 -21.036167 -1.5711628 3.8315203
        -21.752258 -1.6470104 3.726447 -22.501652 -1.7316927 3.591889
        -23.28665 -1.826692 3.424253 -24.109718 -1.9338028 3.219589
        -24.973463 -2.055224 2.9735005 -25.88068 -2.1936617 2.6810753
        -26.834368 -2.3524697 2.33677 -27.837751 -2.5358315 1.9342611
        -28.894321 -2.748992 1.4662454 -30.007837 -2.9985569 0.92416036
        -31.18235 -3.2928724 0.29778242 -32.42214 -3.64249 -0.42536256
        -33.731453 -4.060728 -1.2608445 -35.113953 -4.5642986 -2.228487
        -36.571423 -5.1739597 -3.3538518 -38.101456 -5.915059 -4.6699333
        -39.69335 -6.817733 -6.2186213 -41.321777 -7.9163675 -8.051184
        -42.93746 -9.247613 -10.226137 -44.45524 -10.845991 -12.80225
        -45.74094 -12.735832 -15.823523 -46.601303 -14.918298 -19.29291
        -46.78518 -17.353395 -23.133366 -46.007618 -19.939285 -27.140726
        -44.008663 -22.495926 -30.94305 -40.64873 -24.765238 -33.99395
        -36.018715 -26.440956 -35.632153 -30.513237 -27.232954 -35.221123
        -24.805025 -26.950241 -32.335583 -19.695023 -25.566692 -26.91238
        -15.887814 -23.233133 -19.27791 -13.797503 -20.226952 -10.027894
        0.11343384 -0.5894613 -0.12710953 0.20022011 -0.5689802 -0.033967018
        0.24903488 -0.53696537 0.06924343 0.26613235 -0.5008116 0.16783333
        0.26064873 -0.46554565 0.25353026 0.24143124 -0.4339366 0.32328933
        0.21542454 -0.40710163 0.37744367 -10.783957 -0.70273864 3.0360246
        -11.139577 -0.7169482 3.114385 -11.504655 -0.7316122 3.1927452
        -11.879481 -0.74678135 3.270759 -12.264396 -0.76251507 3.348035
        -12.659795 -0.77888274 3.424132 -13.066141 -0.79596496 3.498552
        -13.483968 -0.8138549 3.5707338 -13.913893 -0.8326596 3.6400418
        -14.356619 -0.8525018 3.7057595 -14.812946 -0.873522 3.7670767
        -15.283777 -0.8958805 3.8230782 -15.770121 -0.9197602 3.8727307
        -16.273094 -0.9453698 3.9148698 -16.793938 -0.97294736 3.9481838
        -17.334002 -1.0027655 3.9712024 -17.894749 -1.0351372 3.9822786
        -18.477774 -1.0704229 3.9795763 -19.08477 -1.1090405 3.961055
        -19.717562 -1.1514769 3.9244542 -20.378086 -1.1983035 3.8672786
        -21.06841 -1.2501962 3.7867785 -21.790737 -1.3079593 3.6799257
        -22.547413 -1.3725607 3.543379 -23.340973 -1.4451666 3.3734567
        -24.174145 -1.527203 3.166055 -25.049894 -1.6204195 2.916585
        -25.971476 -1.7269808 2.619861 -26.942474 -1.8495834 2.2699635
        -27.966892 -1.9916084 1.8600477 -29.049213 -2.157322 1.3820838
        -30.194517 -2.3521326 0.8264879 -31.408556 -2.582922 0.1815936
        -32.697815 -2.8584657 -0.56713194 -34.069355 -3.1899412 -1.4381897
        -35.530323 -3.591529 -2.4555943 -37.08674 -4.0810647 -3.650867
        -38.741035 -4.68068 -5.0653934 -40.487625 -5.4171915 -6.7527213
        -42.305668 -6.3219867 -8.779923 -44.148167 -7.429731 -11.226234
        -45.927204 -8.775017 -14.176099 -47.49658 -10.385649 -17.702642
        -48.636215 -12.271177 -21.836472 -49.048004 -14.405984 -26.517067
        -48.378067 -16.708475 -31.529678 -46.28323 -19.022722 -36.445305
        -42.54856 -21.114351 -40.599606 -37.23336 -22.695423 -43.158344
        -30.779316 -23.485476 -43.295383 -23.993189 -23.295372 -40.44561
        -17.860744 -22.096157 -34.518013 -13.254227 -20.033169 -25.941174
        -10.678356 -17.375154 -15.502337 0.12006187 -0.51107883 -0.25053406
        0.22280121 -0.5019598 -0.13894653 0.2794571 -0.4809084 -0.014440536
        0.29823112 -0.4547968 0.10421705 0.290699 -0.4283762 0.20674944
        0.26761913 -0.40429115 0.28964937 0.23724556 -0.3836546 0.3535767
        -10.781054 -0.55506635 3.022938 -11.136607 -0.5645242 3.100556
        -11.501654 -0.5742864 3.17814 -11.876493 -0.5843873 3.2553458
        -12.261473 -0.59486717 3.3317828 -12.657001 -0.60577285 3.4070125
        -13.063547 -0.617159 3.4805388 -13.481659 -0.6290885 3.5518029
        -13.911965 -0.64163405 3.620173 -14.355184 -0.6548789 3.6849349
        -14.81213 -0.6689182 3.745282 -15.283721 -0.6838608 3.8003025
        -15.770985 -0.69983095 3.8489666 -16.275063 -0.7169707 3.8901124
        -16.797215 -0.735442 3.922432 -17.338818 -0.7554309 3.944456
        -17.901375 -0.7771508 3.9545386 -18.486506 -0.8008485 3.9508414
        -19.095959 -0.82680994 3.9313197 -19.731607 -0.85536945 3.8937042
        -20.395456 -0.8869196 3.8354843 -21.089659 -0.92192596 3.7538855
        -21.816513 -0.9609439 3.645845 -22.578505 -1.0046427 3.507968
        -23.378326 -1.05383 3.336497 -24.218922 -1.1094967 3.1272233
        -25.103529 -1.1728615 2.8754077 -26.035751 -1.2454356 2.5756605
        -27.019638 -1.3291078 2.2217753 -28.059784 -1.4262538 1.8065064
        -29.161465 -1.5398827 1.3212659 -30.330795 -1.6738237 0.7556788
        -31.5749 -1.8329746 0.09694716 -32.902023 -2.0236108 -0.67107224
        -34.321533 -2.253778 -1.5692129 -35.843475 -2.5337548 -2.6248403
        -37.477455 -2.876587 -3.8742933 -39.230137 -3.2986307 -5.3658266
        -41.100594 -3.8199823 -7.162675 -43.072475 -4.464571 -9.345279
        -45.101868 -5.25947 -12.010756 -47.10027 -6.232723 -15.266355
        -48.913544 -7.408607 -19.211962 -50.301323 -8.799137 -23.905209
        -50.9274 -10.39092 -29.304543 -50.37908 -12.128139 -35.191654
        -48.23871 -13.896442 -41.09248 -44.219963 -15.517231 -46.240414
        -38.346596 -16.764538 -49.64368 -31.095499 -17.412771 -50.297913
        -23.39051 -17.30646 -47.502354 -16.384373 -16.419392 -41.135715
        -11.102055 -14.867239 -31.720419 -8.129669 -12.865427 -20.222088
        -5.5502434 -8.024108 -5.812502 0.2308445 -0.40212202 -0.21947479
        0.29603004 -0.39845848 -0.07989788 0.31796837 -0.3884287 0.053746223
        0.31020927 -0.37596178 0.16918755 0.285141 -0.36344624 0.2623148
        0.2521143 -0.3520912 0.33393317 -10.778563 -0.4051117 3.0147078
        -11.134057 -0.40975735 3.0918703 -11.499065 -0.41455644 3.1689804
        -11.873894 -0.4195266 3.245693 -12.258894 -0.42468852 3.3216197
        -12.654477 -0.43006623 3.3963227 -13.061126 -0.43568784 3.4693081
        -13.479389 -0.44158566 3.540018 -13.909905 -0.447797 3.607823
        -14.3534 -0.4543646 3.6720107 -14.810697 -0.4613375 3.731777
        -15.282724 -0.46877158 3.7862115 -15.770521 -0.4767309 3.8342876
        -16.275242 -0.48528838 3.8748446 -16.79816 -0.49452764 3.9065766
        -17.340673 -0.50454444 3.9280157 -17.904297 -0.51544887 3.9375162
        -18.49068 -0.5273681 3.9332395 -19.101595 -0.54044986 3.9131372
        -19.738949 -0.5548665 3.8749356 -20.40479 -0.5708208 3.8161142
        -21.101318 -0.58855283 3.7338846 -21.8309 -0.6083491 3.625161
        -22.5961 -0.63055575 3.4865172 -23.399714 -0.6555875 3.3141487
        -24.244816 -0.6839558 3.1037817 -25.134815 -0.71628755 2.8505855
        -26.073538 -0.7533612 2.5490425 -27.065315 -0.7961476 2.1927674
        -28.115131 -0.8458684 1.7742671 -29.228756 -0.90407026 1.284602
        -30.412971 -0.9727223 0.71289927 -31.67577 -1.054343 0.04564935
        -33.026554 -1.1521629 -0.7343235 -34.476173 -1.2703315 -1.64933
        -36.036602 -1.4141607 -2.7288961 -37.719833 -1.5904183 -4.012479
        -39.5354 -1.8076286 -5.5528154 -41.48564 -2.0763388 -7.419521
        -43.557503 -2.4092293 -9.701949 -45.709625 -2.8208454 -12.509327
        -47.85391 -3.3265958 -15.964615 -49.831947 -3.9403625 -20.186548
        -51.39103 -4.670147 -25.252563 -52.17035 -5.510979 -31.136223
        -51.717808 -6.435478 -37.619705 -49.56405 -7.384525 -44.200813
        -45.37128 -8.263639 -50.04363 -39.13489 -8.950521 -54.045918
        -31.3526 -9.319274 -55.074806 -23.028 -9.281536 -52.329704
        -15.430613 -8.820627 -45.66482 -9.6932335 -7.998923 -35.6689
        -6.4591694 -6.934163 -23.435102 -5.7605515 -5.7594805 -10.159023
        0.21919441 -0.28017187 -0.2589836 0.2933426 -0.29778123 -0.11495876
        0.32048607 -0.30780673 0.024891853 0.31519127 -0.31278133 0.14653492
        0.29089737 -0.31464827 0.24501991 0.25772762 -0.31473827 0.32093382
        -10.777257 -0.25401703 3.0122113 -11.132716 -0.25382027 3.089223
        -11.497699 -0.25362545 3.166175 -11.872509 -0.2534334 3.2427235
        -12.257502 -0.25324515 3.3184807 -12.65309 -0.25306165 3.3930087
        -13.059754 -0.25288415 3.465814 -13.47805 -0.25271404 3.5363395
        -13.908619 -0.25255302 3.6039562 -14.352185 -0.2524028 3.667953
        -14.809578 -0.25226563 3.7275257 -15.28173 -0.25214383 3.7817652
        -15.769683 -0.25204012 3.8296447 -16.274593 -0.25195763 3.8700056
        -16.79774 -0.2518999 3.9015417 -17.340528 -0.2518708 3.9227855
        -17.904478 -0.25187492 3.9320917 -18.491245 -0.25191727 3.9276211
        -19.102612 -0.25200334 3.9073253 -19.740498 -0.25213933 3.868928
        -20.406961 -0.25233206 3.809906 -21.10422 -0.25258863 3.7274656
        -21.834661 -0.25291684 3.618515 -22.600876 -0.2533259 3.4796166
        -23.405693 -0.253821 3.3069513 -24.252234 -0.2544101 3.0962234
        -25.143957 -0.25509837 2.8425732 -26.084763 -0.25588813 2.5404406
        -27.079082 -0.25677696 2.1833851 -28.132019 -0.25775346 1.7638302
        -29.249516 -0.2587952 1.2727225 -30.438564 -0.2598617 0.6990287
        -31.707457 -0.26088506 0.02900502 -33.065975 -0.26176155 -0.75485474
        -34.525475 -0.26233363 -1.6753573 -36.098568 -0.26237315 -2.7627304
        -37.79805 -0.26155815 -4.057457 -39.63444 -0.2594495 -5.613765
        -41.61121 -0.25547174 -7.503392 -43.71645 -0.24890861 -9.81868
        -45.909763 -0.23893574 -12.672938 -48.103317 -0.22472471 -16.194473
        -50.13749 -0.2055879 -20.508528 -51.755657 -0.18131942 -25.69952
        -52.588997 -0.15252697 -31.746616 -52.172203 -0.1210236 -38.432823
        -50.018158 -0.09021169 -45.247253 -45.77074 -0.06581733 -51.331074
        -39.415077 -0.05417773 -55.544167 -31.455027 -0.057332247 -56.708622
        -22.920334 -0.07565817 -53.988083 -15.120329 -0.10685176 -47.22676
        -9.225483 -0.14541134 -37.034996 -5.8997593 -0.18399426 -24.54979
        -5.174385 -0.21645914 -11.014105 0.18660164 -0.15455852 -0.24769402
        0.2693348 -0.19280791 -0.11212158 0.30356598 -0.22309291 0.023078918
        0.3036747 -0.24608274 0.14253092 0.2833042 -0.26299512 0.2402873
        0.2528553 -0.27514032 0.31625217 -10.777393 -0.1029502 3.01575
        -11.132853 -0.097912244 3.0929196 -11.497827 -0.09272484 3.1700358
        -11.872618 -0.08737202 3.2467542 -12.25758 -0.08183497 3.3226862
        -12.653123 -0.07609177 3.397394 -13.059726 -0.07011683 3.4703832
        -13.477942 -0.06388061 3.5410964 -13.908409 -0.057349056 3.6089034
        -14.35185 -0.050483122 3.6730924 -14.809089 -0.043238044 3.7328587
        -15.281055 -0.03556263 3.7872922 -15.768786 -0.027398428 3.8353658
        -16.273438 -0.018678632 3.8759189 -16.796278 -0.00932678 3.9076455
        -17.338707 0.0007449314 3.9290776 -17.902239 0.01163766 3.9385693
        -18.48852 0.023468468 3.934282 -19.099325 0.036373857 3.914168
        -19.736557 0.050513715 3.8759527 -20.402264 0.06607732 3.8171165
        -21.098642 0.08329009 3.7348716 -21.828054 0.10242303 3.6261327
        -22.593063 0.12380344 3.4874754 -23.396461 0.14783539 3.3150973
        -24.241316 0.17501357 3.1047263 -25.13103 0.20595405 2.8515375
        -26.069418 0.24142906 2.5500178 -27.060808 0.28241414 2.193792
        -28.110159 0.3301496 1.7753797 -29.223227 0.38622466 1.2858572
        -30.406765 0.4526847 0.7143799 -31.668736 0.5321757 0.047474444
        -33.01849 0.628127 -0.73197615 -34.466827 0.7449848 -1.6462133
        -36.025635 0.8884951 -2.7246394 -37.7068 1.0660342 -4.006551
        -39.51973 1.286954 -5.544445 -41.46662 1.5628817 -7.4076033
        -43.53426 1.9078286 -9.684906 -45.681175 2.3378565 -12.48494
        -47.819275 2.8698678 -15.929851 -49.79042 3.5189297 -20.137392
        -51.34265 4.2932878 -25.184074 -52.116627 5.1866603 -31.04294
        -51.662437 6.1681104 -37.496723 -49.513206 7.1720076 -44.045734
        -45.33304 8.093603 -49.858982 -39.11854 8.800135 -53.840706
        -31.364986 9.161473 -54.864273 -23.069508 9.089167 -52.132477
        -15.494503 8.571061 -45.49756 -9.768396 7.67951 -35.541115
        -6.534424 6.5453677 -23.347614 -5.827898 5.3125944 -10.105825
        0.13694382 -0.04615307 -0.18680954 0.22647285 -0.099511385 -0.071416855
        0.2686882 -0.1460402 0.04876232 0.27649498 -0.18427348 0.15779066
        0.26276398 -0.21438384 0.24869442 0.23767376 -0.23739398 0.32037678
        -10.778717 0.046920955 3.0250232 -11.134204 0.056767456 3.1026547
        -11.499181 0.066914134 3.1802516 -11.873947 0.077393636 3.257469
        -12.258849 0.08824424 3.3339167 -12.654294 0.09951078 3.4091556
        -13.060753 0.11124532 3.48269 -13.478772 0.12350803 3.5539603
        -13.908978 0.13636816 3.6223352 -14.352091 0.14990528 3.6870997
        -14.808923 0.1642103 3.7474473 -15.280392 0.1793873 3.802466
        -15.767524 0.19555496 3.851125 -16.27146 0.21284886 3.8922634
        -16.793457 0.23142411 3.9245727 -17.334896 0.25145847 3.946583
        -17.897268 0.2731564 3.9566479 -18.4822 0.29675427 3.9529305
        -19.091436 0.32252684 3.933385 -19.726845 0.35079563 3.895743
        -20.390429 0.38193938 3.8374937 -21.08433 0.41640866 3.7558646
        -21.810854 0.45474255 3.647794 -22.572468 0.49759126 3.5098898
        -23.371866 0.5457501 3.338399 -24.211973 0.600192 3.1291168
        -25.09602 0.6621221 2.877314 -26.02759 0.7330432 2.577612
        -27.010714 0.8148434 2.22382 -28.049955 0.90991163 1.8087186
        -29.150553 1.0212888 1.3237518 -30.318577 1.1528678 0.75859624
        -31.561077 1.3096519 0.10052589 -32.886223 1.4980848 -0.66650116
        -34.303272 1.7264651 -1.563171 -35.82212 2.0054386 -2.6166337
        -37.452187 2.3485646 -3.8629231 -39.199913 2.7728865 -5.3498588
        -41.064117 3.2993832 -7.140059 -43.028194 3.953045 -9.3131075
        -45.048058 4.7621026 -11.964985 -47.035263 5.755666 -15.201515
        -48.83625 6.958713 -19.12092 -50.212097 8.383095 -23.77933
        -50.82923 10.01392 -29.134466 -50.278885 11.792091 -34.96927
        -48.14788 13.597878 -40.81423 -44.153595 15.245522 -45.911285
        -38.320625 16.50262 -49.279945 -31.120949 17.140926 -49.92652
        -23.467579 17.005919 -47.155556 -16.501144 16.075428 -40.84188
        -11.239107 14.472476 -31.495798 -8.267328 12.421549 -20.06799
        -5.687252 7.585169 -5.691452 0.07832909 0.028750896 -0.08847618
        0.17128944 -0.031002998 -0.00060653687 0.22075462 -0.08667135 0.09724426
        0.23713112 -0.13474703 0.18957996 0.23169518 -0.17414713 0.2687323
        0.21382904 -0.2052815 0.33250234 -10.780458 0.19445463 3.039153
        -11.135981 0.20904683 3.117534 -11.500956 0.22408892 3.1959138
        -11.875672 0.23962983 3.2739456 -12.260471 0.25572708 3.3512378
        -12.655747 0.27244794 3.427349 -13.061962 0.28987044 3.5017817
        -13.479651 0.3080848 3.5739727 -13.909428 0.32719475 3.6432884
        -14.351996 0.34731936 3.7090104 -14.808155 0.36859474 3.7703288
        -15.278805 0.39117625 3.8263278 -15.764952 0.41524118 3.8759742
        -16.267717 0.44099176 3.9181025 -16.788332 0.46865904 3.9514017
        -17.328148 0.4985072 3.9744003 -17.888626 0.5308399 3.9854515
        -18.471355 0.5660074 3.9827192 -19.07803 0.6044156 3.9641635
        -19.710466 0.6465386 3.9275234 -20.370598 0.69293344 3.8703055
        -21.060488 0.74426013 3.7897604 -21.782322 0.80130625 3.6828632
        -22.53845 0.86501926 3.5462766 -23.331387 0.93655074 3.3763232
        -24.163849 1.0173068 3.1689076 -25.038784 1.1090206 2.9194527
        -25.959421 1.213843 2.6227894 -26.929316 1.3344631 2.273021