# vtk DataFile Version 3.0
T01 + IGRF magnetic field in GSW coordinates
ASCII
DATASET STRUCTURED_GRID
DIMENSIONS     61    21    21
POINTS    26901 float
     -50.000000     -10.000000     -10.000000
     -49.000000     -10.000000     -10.000000
     -48.000000     -10.000000     -10.000000
     -47.000000     -10.000000     -10.000000
     -46.000000     -10.000000     -10.000000
     -45.000000     -10.000000     -10.000000
     -44.000000     -10.000000     -10.000000
     -43.000000     -10.000000     -10.000000
     -42.000000     -10.000000     -10.000000
     -41.000000     -10.000000     -10.000000
     -40.000000     -10.000000     -10.000000
     -39.000000     -10.000000     -10.000000
     -38.000000     -10.000000     -10.000000
     -37.000000     -10.000000     -10.000000
     -36.000000     -10.000000     -10.000000
     -35.000000     -10.000000     -10.000000
     -34.000000     -10.000000     -10.000000
     -33.000000     -10.000000     -10.000000
     -32.000000     -10.000000     -10.000000
     -31.000000     -10.000000     -10.000000
     -30.000000     -10.000000     -10.000000
     -29.000000     -10.000000     -10.000000
     -28.000000     -10.000000     -10.000000
     -27.000000     -10.000000     -10.000000
     -26.000000     -10.000000     -10.000000
     -25.000000     -10.000000     -10.000000
     -24.000000     -10.000000     -10.000000
     -23.000000     -10.000000     -10.000000
     -22.000000     -10.000000     -10.000000
     -21.000000     -10.000000     -10.000000
     -20.000000     -10.000000     -10.000000
     -19.000000     -10.000000     -10.000000
     -18.000000     -10.000000     -10.000000
     -17.000000     -10.000000     -10.000000
     -16.000000     -10.000000     -10.000000
     -15.000000     -10.000000     -10.000000
     -14.000000     -10.000000     -10.000000
     -13.000000     -10.000000     -10.000000
     -12.000000     -10.000000     -10.000000
     -11.000000     -10.000000     -10.000000
     -10.000000     -10.000000     -10.000000
      -9.000000     -10.000000     -10.000000
      -8.000000     -10.000000     -10.000000
      -7.000000     -10.000000     -10.000000
      -6.000000     -10.000000     -10.000000
      -5.000000     -10.000000     -10.000000
      -4.000000     -10.000000     -10.000000
      -3.000000     -10.000000     -10.000000
      -2.000000     -10.000000     -10.000000
      -1.000000     -10.000000     -10.000000
       0.000000     -10.000000     -10.000000
       1.000000     -10.000000     -10.000000
       2.000000     -10.000000     -10.000000
       3.000000     -10.000000     -10.000000
       4.000000     -10.000000     -10.000000
       5.000000     -10.000000     -10.000000
       6.000000     -10.000000     -10.000000
       7.000000     -10.000000     -10.000000
       8.000000     -10.000000     -10.000000
       9.000000     -10.000000     -10.000000
      10.000000     -10.000000     -10.000000
     -50.000000      -9.000000     -10.000000
     -49.000000      -9.000000     -10.000000
     -48.000000      -9.000000     -10.000000
     -47.000000      -9.000000     -10.000000
     -46.000000      -9.000000     -10.000000
     -45.000000      -9.000000     -10.000000
     -44.000000      -9.000000     -10.000000
     -43.000000      -9.000000     -10.000000
     -42.000000      -9.000000     -10.000000
     -41.000000      -9.000000     -10.000000
     -40.000000      -9.000000     -10.000000
     -39.000000      -9.000000     -10.000000
     -38.000000      -9.000000     -10.000000
     -37.000000      -9.000000     -10.000000
     -36.000000      -9.000000     -10.000000
     -35.000000      -9.000000     -10.000000
     -34.000000      -9.000000     -10.000000
     -33.000000      -9.000000     -10.000000
     -32.000000      -9.000000     -10.000000
     -31.000000      -9.000000     -10.000000
     -30.000000      -9.000000     -10.000000
     -29.000000      -9.000000     -10.000000
     -28.000000      -9.000000     -10.000000
     -27.000000      -9.000000     -10.000000
     -26.000000      -9.000000     -10.000000
     -25.000000      -9.000000     -10.000000
     -24.000000      -9.000000     -10.000000
     -23.000000      -9.000000     -10.000000
     -22.000000      -9.000000     -10.000000
     -21.000000      -9.000000     -10.000000
     -20.000000      -9.000000     -10.000000
     -19.000000      -9.000000     -10.000000
     -18.000000      -9.000000     -10.000000
     -17.000000      -9.000000     -10.000000
     -16.000000      -9.000000     -10.000000
     -15.000000      -9.000000     -10.000000
     -14.000000      -9.000000     -10.000000
     -13.000000      -9.000000     -10.000000
     -12.000000      -9.000000     -10.000000
     -11.000000      -9.000000     -10.000000
     -10.000000      -9.000000     -10.000000
      -9.000000      -9.000000     -10.000000
      -8.000000      -9.000000     -10.000000
      -7.000000      -9.000000     -10.000000
      -6.000000      -9.000000     -10.000000
      -5.000000      -9.000000     -10.000000
      -4.000000      -9.000000     -10.000000
      -3.000000      -9.000000     -10.000000
      -2.000000      -9.000000     -10.000000
      -1.000000      -9.000000     -10.000000
       0.000000      -9.000000     -10.000000
       1.000000      -9.000000     -10.000000
       2.000000      -9.000000     -10.000000
       3.000000      -9.000000     -10.000000
       4.000000      -9.000000     -10.000000
       5.000000      -9.000000     -10.000000
       6.000000      -9.000000     -10.000000
       7.000000      -9.000000     -10.000000
       8.000000      -9.000000     -10.000000
       9.000000      -9.000000     -10.000000
      10.000000      -9.000000     -10.000000
     -50.000000      -8.000000     -10.000000
     -49.000000      -8.000000     -10.000000
     -48.000000      -8.000000     -10.000000
     -47.000000      -8.000000     -10.000000
     -46.000000      -8.000000     -10.000000
     -45.000000      -8.000000     -10.000000
     -44.000000      -8.000000     -10.000000
     -43.000000      -8.000000     -10.000000
     -42.000000      -8.000000     -10.000000
     -41.000000      -8.000000     -10.000000
     -40.000000      -8.000000     -10.000000
     -39.000000      -8.000000     -10.000000
     -38.000000      -8.000000     -10.000000
     -37.000000      -8.000000     -10.000000
     -36.000000      -8.000000     -10.000000
     -35.000000      -8.000000     -10.000000
     -34.000000      -8.000000     -10.000000
     -33.000000      -8.000000     -10.000000
     -32.000000      -8.000000     -10.000000
     -31.000000      -8.000000     -10.000000
     -30.000000      -8.000000     -10.000000
     -29.000000      -8.000000     -10.000000
     -28.000000      -8.000000     -10.000000
     -27.000000      -8.000000     -10.000000
     -26.000000      -8.000000     -10.000000
     -25.000000      -8.000000     -10.000000
     -24.000000      -8.000000     -10.000000
     -23.000000      -8.000000     -10.000000
     -22.000000      -8.000000     -10.000000
     -21.000000      -8.000000     -10.000000
     -20.000000      -8.000000     -10.000000
     -19.000000      -8.000000     -10.000000
     -18.000000      -8.000000     -10.000000
     -17.000000      -8.000000     -10.000000
     -16.000000      -8.000000     -10.000000
     -15.000000      -8.000000     -10.000000
     -14.000000      -8.000000     -10.000000
     -13.000000      -8.000000     -10.000000
     -12.000000      -8.000000     -10.000000
     -11.000000      -8.000000     -10.000000
     -10.000000      -8.000000     -10.000000
      -9.000000      -8.000000     -10.000000
      -8.000000      -8.000000     -10.000000
      -7.000000      -8.000000     -10.000000
      -6.000000      -8.000000     -10.000000
      -5.000000      -8.000000     -10.000000
      -4.000000      -8.000000     -10.000000
      -3.000000      -8.000000     -10.000000
      -2.000000      -8.000000     -10.000000
      -1.000000      -8.000000     -10.000000
       0.000000      -8.000000     -10.000000
       1.000000      -8.000000     -10.000000
       2.000000      -8.000000     -10.000000
       3.000000      -8.000000     -10.000000
       4.000000      -8.000000     -10.000000
       5.000000      -8.000000     -10.000000
       6.000000      -8.000000     -10.000000
       7.000000      -8.000000     -10.000000
       8.000000      -8.000000     -10.000000
       9.000000      -8.000000     -10.000000
      10.000000      -8.000000     -10.000000
     -50.000000      -7.000000     -10.000000
     -49.000000      -7.000000     -10.000000
     -48.000000      -7.000000     -10.000000
     -47.000000      -7.000000     -10.000000
     -46.000000      -7.000000     -10.000000
     -45.000000      -7.000000     -10.000000
     -44.000000      -7.000000     -10.000000
     -43.000000      -7.000000     -10.000000
     -42.000000      -7.000000     -10.000000
     -41.000000      -7.000000     -10.000000
     -40.000000      -7.000000     -10.000000
     -39.000000      -7.000000     -10.000000
     -38.000000      -7.000000     -10.000000
     -37.000000      -7.000000     -10.000000
     -36.000000      -7.000000     -10.000000
     -35.000000      -7.000000     -10.000000
     -34.000000      -7.000000     -10.000000
     -33.000000      -7.000000     -10.000000
     -32.000000      -7.000000     -10.000000
     -31.000000      -7.000000     -10.000000
     -30.000000      -7.000000     -10.000000
     -29.000000      -7.000000     -10.000000
     -28.000000      -7.000000     -10.000000
     -27.000000      -7.000000     -10.000000
     -26.000000      -7.000000     -10.000000
     -25.000000      -7.000000     -10.000000
[...]
POINT_DATA    26901
VECTORS B_total float
  -8.9006624E+00  -9.9857056E-01   3.2959166E+00
  -9.2128077E+00  -1.0267925E+00   3.3794372E+00
  -9.5346136E+00  -1.0567691E+00   3.4635360E+00
  -9.8664083E+00  -1.0887152E+00   3.5480080E+00
  -1.0208563E+01  -1.1228734E+00   3.6326263E+00
  -1.0561500E+01  -1.1595196E+00   3.7171392E+00
  -1.0925697E+01  -1.1989657E+00   3.8012652E+00
  -1.1301702E+01  -1.2415642E+00   3.8846886E+00
  -1.1690132E+01  -1.2877129E+00   3.9670527E+00
  -1.2091689E+01  -1.3378613E+00   4.0479527E+00
  -1.2507162E+01  -1.3925147E+00   4.1269255E+00
  -1.2937434E+01  -1.4522433E+00   4.2034402E+00
  -1.3383491E+01  -1.5176873E+00   4.2768860E+00
  -1.3846421E+01  -1.5895661E+00   4.3465562E+00
  -1.4327415E+01  -1.6686871E+00   4.4116359E+00
  -1.4827762E+01  -1.7559549E+00   4.4711857E+00
  -1.5348851E+01  -1.8523815E+00   4.5241232E+00
  -1.5892148E+01  -1.9590985E+00   4.5692115E+00
  -1.6459185E+01  -2.0773692E+00   4.6050439E+00
  -1.7051546E+01  -2.2086029E+00   4.6300325E+00
  -1.7670832E+01  -2.3543701E+00   4.6424017E+00
  -1.8318642E+01  -2.5164227E+00   4.6401873E+00
  -1.8996538E+01  -2.6967134E+00   4.6212325E+00
  -1.9706024E+01  -2.8974249E+00   4.5832005E+00
  -2.0448511E+01  -3.1210001E+00   4.5235734E+00
  -2.1225277E+01  -3.3701835E+00   4.4396629E+00
  -2.2037430E+01  -3.6480615E+00   4.3286095E+00
  -2.2885851E+01  -3.9581261E+00   4.1873808E+00
  -2.3771126E+01  -4.3043318E+00   4.0127687E+00
  -2.4693405E+01  -4.6911650E+00   3.8013940E+00
  -2.5652262E+01  -5.1237144E+00   3.5497324E+00
  -2.6646477E+01  -5.6077485E+00   3.2541871E+00
  -2.7673809E+01  -6.1497784E+00   2.9112186E+00
  -2.8730743E+01  -6.7571263E+00   2.5175576E+00
  -2.9812254E+01  -7.4379773E+00   2.0704811E+00
  -3.0911619E+01  -8.2013941E+00   1.5681218E+00
  -3.2020267E+01  -9.0572710E+00   1.0097685E+00
  -3.3127609E+01  -1.0016158E+01   3.9608204E-01
  -3.4220779E+01  -1.1088827E+01  -2.7079880E-01
  -3.5284180E+01  -1.2285429E+01  -9.8723173E-01
  -3.6298725E+01  -1.3614031E+01  -1.7479709E+00
  -3.7240959E+01  -1.5078337E+01  -2.5456898E+00
  -3.8082310E+01  -1.6674456E+01  -3.3697982E+00
  -3.8789440E+01  -1.8386963E+01  -4.2042437E+00
  -3.9326637E+01  -2.0184734E+01  -5.0244889E+00
  -3.9661350E+01  -2.2017849E+01  -5.7943788E+00
  -3.9772964E+01  -2.3816902E+01  -6.4642382E+00
  -3.9663887E+01  -2.5496601E+01  -6.9718447E+00
  -3.9370029E+01  -2.6964401E+01  -7.2473803E+00
  -3.8967026E+01  -2.8133636E+01  -7.2222490E+00
  -3.8568783E+01  -2.8938732E+01  -6.8401661E+00
  -8.8948563E-02  -3.9019489E-01   4.0116596E-01
  -7.7008009E-02  -4.0943050E-01   3.8853693E-01
  -5.9689522E-02  -4.2431736E-01   3.7991142E-01
  -3.9191723E-02  -4.3363476E-01   3.7610006E-01
  -1.7925739E-02  -4.3705750E-01   3.7714577E-01
   2.0046234E-03  -4.3508816E-01   3.8242483E-01
   1.9111633E-02  -4.2877579E-01   3.9091349E-01
   3.2622337E-02  -4.1941357E-01   4.0144157E-01
   4.2364120E-02  -4.0824556E-01   4.1293621E-01
   4.8616409E-02  -3.9634466E-01   4.2451727E-01
  -8.9563427E+00  -9.3772393E-01   3.3131371E+00
  -9.2713537E+00  -9.6402222E-01   3.3959563E+00
  -9.5962782E+00  -9.9198043E-01   3.4792354E+00
  -9.9314709E+00  -1.0217980E+00   3.5627649E+00
  -1.0277338E+01  -1.0537010E+00   3.6463115E+00
  -1.0634339E+01  -1.0879458E+00   3.7296174E+00
  -1.1002997E+01  -1.1248225E+00   3.8123944E+00
  -1.1383904E+01  -1.1646591E+00   3.8943193E+00
  -1.1777732E+01  -1.2078264E+00   3.9750266E+00
  -1.2185244E+01  -1.2547432E+00   4.0541000E+00
  -1.2607298E+01  -1.3058820E+00   4.1310639E+00
  -1.3044854E+01  -1.3617759E+00   4.2053704E+00
  -1.3498986E+01  -1.4230257E+00   4.2763872E+00
  -1.3970879E+01  -1.4903079E+00   4.3433795E+00
  -1.4461832E+01  -1.5643840E+00   4.4054995E+00
  -1.4973262E+01  -1.6461097E+00   4.4617624E+00
  -1.5506689E+01  -1.7364464E+00   4.5110350E+00
  -1.6063732E+01  -1.8364732E+00   4.5520115E+00
  -1.6646097E+01  -1.9474002E+00   4.5832038E+00
  -1.7255548E+01  -2.0705845E+00   4.6029272E+00
  -1.7893900E+01  -2.2075477E+00   4.6092882E+00
  -1.8562984E+01  -2.3599963E+00   4.6001811E+00
  -1.9264629E+01  -2.5298483E+00   4.5732861E+00
  -2.0000628E+01  -2.7192640E+00   4.5260692E+00
  -2.0772730E+01  -2.9306817E+00   4.4557829E+00
  -2.1582598E+01  -3.1668706E+00   4.3594651E+00
  -2.2431782E+01  -3.4309757E+00   4.2339272E+00
  -2.3321674E+01  -3.7266018E+00   4.0757422E+00
  -2.4253439E+01  -4.0578818E+00   3.8812177E+00
  -2.5227894E+01  -4.4295750E+00   3.6463828E+00
  -2.6245352E+01  -4.8471675E+00   3.3669891E+00
  -2.7305422E+01  -5.3169880E+00   3.0385528E+00
  -2.8406754E+01  -5.8463326E+00   2.6564631E+00
  -2.9546782E+01  -6.4435987E+00   2.2161565E+00
  -3.0721466E+01  -7.1184306E+00   1.7133510E+00
  -3.1925056E+01  -7.8818426E+00   1.1442943E+00
  -3.3149837E+01  -8.7463017E+00   5.0597525E-01
  -3.4385784E+01  -9.7256737E+00  -2.0376217E-01
  -3.5619957E+01  -1.0834884E+01  -9.8623681E-01
  -3.6835506E+01  -1.2089079E+01  -1.8419499E+00
  -3.8010109E+01  -1.3501985E+01  -2.7703927E+00
  -3.9113998E+01  -1.5083117E+01  -3.7691200E+00
  -4.0108166E+01  -1.6833649E+01  -4.8316069E+00
  -4.0943848E+01  -1.8740917E+01  -5.9434257E+00
  -4.1565071E+01  -2.0772299E+01  -7.0769801E+00
  -4.1915932E+01  -2.2869839E+01  -8.1858692E+00
  -4.1953239E+01  -2.4947903E+01  -9.2011185E+00
  -4.1663296E+01  -2.6896450E+01  -1.0031845E+01
  -4.1078831E+01  -2.8591915E+01  -1.0572659E+01
  -4.0289970E+01  -2.9915308E+01  -1.0717856E+01
  -3.9443310E+01  -3.0774162E+01  -1.0379713E+01
  -3.8726334E+01  -3.1122105E+01  -9.5054874E+00
  -9.6760869E-02  -4.1230774E-01   3.4537792E-01
  -7.3627234E-02  -4.3158340E-01   3.3367872E-01
  -4.6426773E-02  -4.4367027E-01   3.2933855E-01
  -1.8643379E-02  -4.4820690E-01   3.3221149E-01
   6.7949295E-03  -4.4596958E-01   3.4113598E-01
   2.7973652E-02  -4.3843651E-01   3.5438251E-01
   4.4038296E-02  -4.2733669E-01   3.7013412E-01
   5.5007458E-02  -4.1429615E-01   3.8678336E-01
   6.1448097E-02  -4.0063334E-01   4.0311658E-01
  -9.0122137E+00  -8.7440801E-01   3.3318167E+00
  -9.3300171E+00  -8.9848542E-01   3.4140358E+00
  -9.6579657E+00  -9.2410016E-01   3.4966033E+00
  -9.9964447E+00  -9.5143461E-01   3.5793033E+00
  -1.0345889E+01  -9.8069555E-01   3.6618974E+00
  -1.0706794E+01  -1.0121171E+00   3.7441208E+00
  -1.1079720E+01  -1.0459645E+00   3.8256786E+00
  -1.1465304E+01  -1.0825379E+00   3.9062390E+00
  -1.1864270E+01  -1.1221769E+00   3.9854271E+00
  -1.2277438E+01  -1.1652654E+00   4.0628161E+00
  -1.2705727E+01  -1.2122372E+00   4.1379151E+00
  -1.3150173E+01  -1.2635829E+00   4.2101588E+00
  -1.3611931E+01  -1.3198563E+00   4.2788925E+00
  -1.4092278E+01  -1.3816824E+00   4.3433542E+00
  -1.4592619E+01  -1.4497668E+00   4.4026604E+00
  -1.5114485E+01  -1.5249045E+00   4.4557824E+00
  -1.5659530E+01  -1.6079923E+00   4.5015306E+00
  -1.6229521E+01  -1.7000401E+00   4.5385351E+00
  -1.6826326E+01  -1.8021854E+00   4.5652237E+00
  -1.7451897E+01  -1.9157097E+00   4.5798125E+00
  -1.8108257E+01  -2.0420575E+00   4.5802889E+00
  -1.8797472E+01  -2.1828589E+00   4.5644073E+00
  -1.9521633E+01  -2.3399572E+00   4.5296774E+00
  -2.0282848E+01  -2.5154440E+00   4.4733686E+00
  -2.1083212E+01  -2.7117023E+00   4.3924956E+00
  -2.1924795E+01  -2.9314535E+00   4.2838144E+00
  -2.2809629E+01  -3.1778326E+00   4.1437955E+00
  -2.3739670E+01  -3.4544609E+00   3.9685934E+00
  -2.4716736E+01  -3.7655456E+00   3.7540047E+00
  -2.5742409E+01  -4.1159921E+00   3.4954214E+00
  -2.6817886E+01  -4.5115380E+00   3.1878064E+00
  -2.7943789E+01  -4.9589100E+00   2.8256965E+00
  -2.9119923E+01  -5.4660082E+00   2.4032726E+00
  -3.0345020E+01  -6.0421147E+00   1.9144714E+00
  -3.1616493E+01  -6.6981463E+00   1.3531476E+00
  -3.2930164E+01  -7.4469104E+00   7.1321255E-01
  -3.4279938E+01  -8.3033562E+00  -1.1307001E-02
  -3.5657257E+01  -9.2846947E+00  -8.2636142E-01
  -3.7050129E+01  -1.0410252E+01  -1.7381011E+00
  -3.8441437E+01  -1.1700739E+01  -2.7530766E+00
  -3.9806335E+01  -1.3176565E+01  -3.8779955E+00
  -4.1108803E+01  -1.4854672E+01  -5.1183505E+00
  -4.2298138E+01  -1.6743477E+01  -6.4750552E+00
  -4.3306976E+01  -1.8835728E+01  -7.9384089E+00
  -4.4053417E+01  -2.1099903E+01  -9.4795380E+00
  -4.4449947E+01  -2.3471771E+01  -1.1040868E+01
  -4.4420918E+01  -2.5849316E+01  -1.2528889E+01
  -4.3927330E+01  -2.8094841E+01  -1.3813676E+01
  -4.2993431E+01  -3.0047943E+01  -1.4739254E+01
  -4.1725559E+01  -3.1549849E+01  -1.5145927E+01
  -4.0313030E+01  -3.2474632E+01  -1.4900336E+01
  -3.9005585E+01  -3.2757774E+01  -1.3923859E+01
  -3.8071739E+01  -3.2411682E+01  -1.2208692E+01
  -9.1856480E-02  -4.2949677E-01   2.7676964E-01
  -5.6103706E-02  -4.4564438E-01   2.7158451E-01
  -2.0105362E-02  -4.5231724E-01   2.7693367E-01
   1.2107849E-02  -4.5060730E-01   2.9079390E-01
   3.8120270E-02  -4.4250202E-01   3.1040096E-01
   5.7064056E-02  -4.3026733E-01   3.3298302E-01
   6.9257736E-02  -4.1593266E-01   3.5623074E-01
   7.5695038E-02  -4.0106392E-01   3.7850833E-01
  -9.0666018E+00  -8.0871886E-01   3.3514893E+00
  -9.3870525E+00  -8.3030820E-01   3.4332199E+00
  -9.7178602E+00  -8.5328817E-01   3.5151968E+00
  -1.0059437E+01  -8.7782228E-01   3.5971982E+00
  -1.0412243E+01  -9.0409541E-01   3.6789792E+00
  -1.0776806E+01  -9.3231744E-01   3.7602689E+00
  -1.1153723E+01  -9.6272594E-01   3.8407652E+00
  -1.1543670E+01  -9.9558997E-01   3.9201288E+00
  -1.1947418E+01  -1.0312144E+00   3.9979753E+00
  -1.2365837E+01  -1.0699439E+00   4.0738659E+00
  -1.2799909E+01  -1.1121689E+00   4.1472964E+00
  -1.3250733E+01  -1.1583318E+00   4.2176838E+00
  -1.3719542E+01  -1.2089320E+00   4.2843509E+00
  -1.4207697E+01  -1.2645355E+00   4.3465099E+00
  -1.4716702E+01  -1.3257822E+00   4.4032412E+00
  -1.5248199E+01  -1.3933953E+00   4.4534736E+00
  -1.5803963E+01  -1.4681928E+00   4.4959660E+00
  -1.6385899E+01  -1.5510993E+00   4.5292797E+00
  -1.6996035E+01  -1.6431600E+00   4.5517654E+00
  -1.7636503E+01  -1.7455578E+00   4.5615425E+00
  -1.8309521E+01  -1.8596317E+00   4.5564823E+00
  -1.9017387E+01  -1.9869008E+00   4.5341997E+00
  -1.9762463E+01  -2.1290944E+00   4.4920425E+00
  -2.0547152E+01  -2.2881858E+00   4.4270821E+00
  -2.1373911E+01  -2.4664414E+00   4.3361020E+00
  -2.2245232E+01  -2.6664686E+00   4.2155738E+00
  -2.3163649E+01  -2.8912990E+00   4.0616245E+00
  -2.4131704E+01  -3.1444681E+00   3.8699880E+00
  -2.5151926E+01  -3.4301267E+00   3.6359324E+00
  -2.6226730E+01  -3.7531705E+00   3.3541908E+00
  -2.7358318E+01  -4.1194010E+00   3.0188971E+00
  -2.8548477E+01  -4.5357189E+00   2.6235461E+00
  -2.9798399E+01  -5.0103593E+00   2.1610007E+00
  -3.1108442E+01  -5.5531850E+00   1.6235301E+00
  -3.2477921E+01  -6.1760340E+00   1.0028536E+00
  -3.3904846E+01  -6.8931313E+00   2.9011965E-01
  -3.5385555E+01  -7.7215128E+00  -5.2427423E-01
  -3.6914005E+01  -8.6813974E+00  -1.4510783E+00
  -3.8480392E+01  -9.7962856E+00  -2.5027838E+00
  -4.0068691E+01  -1.1092477E+01  -3.6941407E+00
  -4.1652779E+01  -1.2597521E+01  -5.0420465E+00
  -4.3191086E+01  -1.4336878E+01  -6.5637727E+00
  -4.4620701E+01  -1.6328129E+01  -8.2722149E+00
  -4.5853001E+01  -1.8572243E+01  -1.0167036E+01
  -4.6774361E+01  -2.1042149E+01  -1.2221560E+01
  -4.7256428E+01  -2.3670641E+01  -1.4367375E+01
  -4.7179001E+01  -2.6341146E+01  -1.6481205E+01
  -4.6465565E+01  -2.8887587E+01  -1.8381466E+01
  -4.5123932E+01  -3.1108881E+01  -1.9841965E+01
  -4.3277569E+01  -3.2800251E+01  -2.0625706E+01
  -4.1170513E+01  -3.3796131E+01  -2.0533268E+01
  -3.9135593E+01  -3.4010880E+01  -1.9449886E+01
  -3.7531818E+01  -3.3461029E+01  -1.7371969E+01
  -2.8173916E+01  -2.4855316E+01  -1.1004105E+01
  -6.9699287E-02  -4.3421555E-01   2.0416927E-01
  -2.3561478E-02  -4.4472122E-01   2.1235275E-01
   1.6891479E-02  -4.4504929E-01   2.3233891E-01
   4.8612595E-02  -4.3775463E-01   2.5985813E-01
   7.0821762E-02  -4.2564011E-01   2.9084110E-01
   8.4287643E-02  -4.1116047E-01   3.2207060E-01
   9.0588570E-02  -3.9613914E-01   3.5140085E-01
  -9.1177845E+00  -7.4075550E-01   3.3713663E+00
  -9.4406710E+00  -7.5962263E-01   3.4527211E+00
  -9.7741041E+00  -7.7971345E-01   3.5342302E+00
  -1.0118516E+01  -8.0117041E-01   3.6156673E+00
  -1.0474393E+01  -8.2415521E-01   3.6967816E+00
  -1.0842292E+01  -8.4885108E-01   3.7772970E+00
  -1.1222838E+01  -8.7546557E-01   3.8569047E+00
  -1.1616748E+01  -9.0423411E-01   3.9352572E+00
  -1.2024830E+01  -9.3542343E-01   4.0119619E+00
  -1.2448001E+01  -9.6933556E-01   4.0865693E+00
  -1.2887297E+01  -1.0063132E+00   4.1585617E+00
  -1.3343878E+01  -1.0467446E+00   4.2273397E+00
  -1.3819044E+01  -1.0910697E+00   4.2922068E+00
  -1.4314236E+01  -1.1397876E+00   4.3523483E+00
  -1.4831042E+01  -1.1934633E+00   4.4068127E+00
  -1.5371207E+01  -1.2527381E+00   4.4544897E+00
  -1.5936618E+01  -1.3183383E+00   4.4940863E+00
  -1.6529308E+01  -1.3910875E+00   4.5241051E+00
  -1.7151453E+01  -1.4719204E+00   4.5428219E+00
  -1.7805347E+01  -1.5618978E+00   4.5482645E+00
  -1.8493399E+01  -1.6622263E+00   4.5381975E+00
  -1.9218126E+01  -1.7742817E+00   4.5101066E+00
  -1.9982138E+01  -1.8996369E+00   4.4611840E+00
  -2.0788139E+01  -2.0400982E+00   4.3883157E+00
  -2.1638935E+01  -2.1977541E+00   4.2880616E+00
  -2.2537428E+01  -2.3750229E+00   4.1566234E+00
  -2.3486654E+01  -2.5747385E+00   3.9897957E+00
  -2.4489758E+01  -2.8002350E+00   3.7828970E+00
  -2.5549992E+01  -3.0554624E+00   3.5306787E+00
  -2.6670649E+01  -3.3451273E+00   3.2272153E+00
  -2.7854990E+01  -3.6748714E+00   2.8658051E+00
  -2.9106085E+01  -4.0514908E+00   2.4388742E+00
  -3.0426676E+01  -4.4832134E+00   1.9379127E+00
  -3.1819010E+01  -4.9800534E+00   1.3534100E+00
  -3.3284683E+01  -5.5542555E+00   6.7475629E-01
  -3.4824451E+01  -6.2208333E+00  -1.1000824E-01
  -3.6437855E+01  -6.9981842E+00  -1.0146894E+00
  -3.8122402E+01  -7.9086990E+00  -2.0557613E+00
  -3.9871799E+01  -8.9791794E+00  -3.2534885E+00
  -4.1672756E+01  -1.0240724E+01  -4.6330090E+00
  -4.3499554E+01  -1.1727455E+01  -6.2245727E+00
  -4.5306553E+01  -1.3473368E+01  -8.0615606E+00
  -4.7019089E+01  -1.5506121E+01  -1.0174332E+01
  -4.8525650E+01  -1.7837017E+01  -1.2578047E+01
  -4.9676018E+01  -2.0447069E+01  -1.5253697E+01
  -5.0291553E+01  -2.3270588E+01  -1.8124260E+01
  -5.0194176E+01  -2.6181206E+01  -2.1032541E+01
  -4.9255085E+01  -2.8987816E+01  -2.3731686E+01
  -4.7454788E+01  -3.1449383E+01  -2.5901541E+01
  -4.4933247E+01  -3.3313278E+01  -2.7198223E+01
  -4.2002357E+01  -3.4371456E+01  -2.7329494E+01
  -3.9102345E+01  -3.4515675E+01  -2.6130573E+01
  -3.6709736E+01  -3.3768143E+01  -2.3607100E+01
  -3.5231583E+01  -3.2272835E+01  -1.9924606E+01
  -8.9357376E-02  -4.0344429E-01   1.3163376E-01
  -3.1030655E-02  -4.2026711E-01   1.4216423E-01
   1.9251823E-02  -4.2502403E-01   1.6881847E-01
   5.7716370E-02  -4.2077541E-01   2.0528698E-01
   8.3732605E-02  -4.1084480E-01   2.4578905E-01
   9.8683357E-02  -3.9804935E-01   2.8598738E-01
   1.0489273E-01  -3.8447332E-01   3.2312679E-01
  -9.1641159E+00  -6.7065001E-01   3.3904879E+00
  -9.4891653E+00  -6.8659544E-01   3.4715679E+00
  -9.8249254E+00  -7.0358056E-01   3.5527244E+00
  -1.0171846E+01  -7.2172588E-01   3.6337254E+00
  -1.0530437E+01  -7.4116814E-01   3.7143164E+00
  -1.0901276E+01  -7.6206213E-01   3.7942147E+00
  -1.1285017E+01  -7.8458369E-01   3.8731062E+00
  -1.1682408E+01  -8.0893189E-01   3.9506378E+00
  -1.2094294E+01  -8.3533293E-01   4.0264082E+00
  -1.2521632E+01  -8.6404300E-01   4.0999579E+00
  -1.2965503E+01  -8.9535308E-01   4.1707587E+00
  -1.3427121E+01  -9.2959315E-01   4.2381959E+00
  -1.3907845E+01  -9.6713805E-01   4.3015547E+00
  -1.4409182E+01  -1.0084133E+00   4.3599977E+00
  -1.4932802E+01  -1.0539019E+00   4.4125452E+00
  -1.5480535E+01  -1.1041528E+00   4.4580493E+00
  -1.6054369E+01  -1.1597896E+00   4.4951754E+00
  -1.6656450E+01  -1.2215208E+00   4.5223694E+00
  -1.7289085E+01  -1.2901534E+00   4.5378418E+00
  -1.7954718E+01  -1.3666055E+00   4.5395403E+00
  -1.8655928E+01  -1.4519260E+00   4.5251317E+00
  -1.9395430E+01  -1.5473151E+00   4.4919844E+00
  -2.0176067E+01  -1.6541512E+00   4.4371519E+00
  -2.1000820E+01  -1.7740258E+00   4.3573518E+00
  -2.1872816E+01  -1.9087886E+00   4.2489386E+00
  -2.2795357E+01  -2.0605938E+00   4.1078658E+00
  -2.3771948E+01  -2.2319849E+00   3.9296207E+00
  -2.4806318E+01  -2.4259739E+00   3.7091336E+00
  -2.5902428E+01  -2.6461585E+00   3.4406667E+00
  -2.7064442E+01  -2.8968635E+00   3.1176670E+00
  -2.8296682E+01  -3.1833236E+00   2.7326274E+00
  -2.9603540E+01  -3.5119128E+00   2.2769294E+00
  -3.0989388E+01  -3.8904476E+00   1.7407018E+00
  -3.2458504E+01  -4.3285728E+00   1.1126354E+00
  -3.4015007E+01  -4.8382654E+00   3.7970150E-01
  -3.5662804E+01  -5.4344711E+00  -4.7335505E-01
  -3.7405212E+01  -6.1358609E+00  -1.4649069E+00
  -3.9244167E+01  -6.9656520E+00  -2.6178155E+00
  -4.1178123E+01  -7.9523320E+00  -3.9612451E+00
  -4.3198074E+01  -9.1299314E+00  -5.5325413E+00
  -4.5280712E+01  -1.0537251E+01  -7.3781304E+00
  -4.7378319E+01  -1.2215079E+01  -9.5516577E+00
  -4.9406052E+01  -1.4200173E+01  -1.2106624E+01
  -5.1229576E+01  -1.6514650E+01  -1.5080645E+01
  -5.2658867E+01  -1.9150074E+01  -1.8469383E+01
  -5.3457413E+01  -2.2047569E+01  -2.2191826E+01
  -5.3376534E+01  -2.5078701E+01  -2.6055061E+01
  -5.2219574E+01  -2.8036552E+01  -2.9734524E+01
  -4.9926926E+01  -3.0649097E+01  -3.2791416E+01
  -4.6652313E+01  -3.2622925E+01  -3.4741829E+01
  -4.2787712E+01  -3.3711987E+01  -3.5169640E+01
  -3.8905571E+01  -3.3787781E+01  -3.3843784E+01
  -3.5627632E+01  -3.2878780E+01  -3.0785301E+01
  -3.3473568E+01  -3.1158733E+01  -2.6249323E+01
  -3.2754852E+01  -2.8890360E+01  -2.0632639E+01
  -4.5332909E-02  -3.7469673E-01   7.3556900E-02
   1.6466141E-02  -3.8704395E-01   1.0598660E-01
   6.2875748E-02  -3.8887501E-01   1.5123272E-01
   9.3493462E-02  -3.8389778E-01   2.0136356E-01
   1.1045647E-01  -3.7524223E-01   2.5065613E-01
   1.1691856E-01  -3.6516619E-01   2.9569149E-01
  -9.2041206E+00  -5.9859276E-01   3.4078603E+00
  -9.5310087E+00  -6.1145139E-01   3.4887526E+00
  -9.8687429E+00  -6.2515253E-01   3.5696564E+00
  -1.0217790E+01  -6.3979346E-01   3.6503363E+00
  -1.0578675E+01  -6.5548468E-01   3.7305336E+00
  -1.0951999E+01  -6.7235154E-01   3.8099618E+00
  -1.1338439E+01  -6.9053602E-01   3.8883023E+00
  -1.1738766E+01  -7.1019953E-01   3.9651949E+00
  -1.2153855E+01  -7.3152500E-01   4.0402327E+00
  -1.2584699E+01  -7.5472033E-01   4.1129484E+00
  -1.3032416E+01  -7.8002173E-01   4.1828032E+00
  -1.3498264E+01  -8.0769706E-01   4.2491713E+00
  -1.3983654E+01  -8.3805150E-01   4.3113213E+00
  -1.4490149E+01  -8.7143165E-01   4.3683958E+00
  -1.5019486E+01  -9.0823168E-01   4.4193921E+00
  -1.5573566E+01  -9.4890016E-01   4.4631329E+00
  -1.6154467E+01  -9.9394780E-01   4.4982429E+00
  -1.6764429E+01  -1.0439565E+00   4.5231252E+00
  -1.7405869E+01  -1.0995897E+00   4.5359311E+00
  -1.8081360E+01  -1.1616055E+00   4.5345411E+00
  -1.8793631E+01  -1.2308716E+00   4.5165381E+00
  -1.9545570E+01  -1.3083844E+00   4.4791918E+00
  -2.0340221E+01  -1.3952932E+00   4.4194350E+00
  -2.1180807E+01  -1.4929298E+00   4.3338375E+00
  -2.2070751E+01  -1.6028506E+00   4.2185807E+00
  -2.3013700E+01  -1.7268751E+00   4.0693984E+00
  -2.4013594E+01  -1.8671649E+00   3.8815041E+00
  -2.5074688E+01  -2.0262957E+00   3.6494865E+00
  -2.6201597E+01  -2.2073636E+00   3.3671679E+00
  -2.7399292E+01  -2.4141181E+00   3.0274329E+00
  -2.8673109E+01  -2.6511338E+00   2.6220388E+00
  -3.0028698E+01  -2.9240332E+00   2.1414030E+00
  -3.1472023E+01  -3.2397804E+00   1.5743799E+00