# vtk DataFile Version 3.0
SM polar seed points transformed to GSW coordinates
ASCII
DATASET POLYDATA
POINTS      288 float
       0.513990       0.000000       1.409189
       0.488820       0.194114       1.404769
       0.415024       0.375000       1.391808
       0.297632       0.530330       1.371191
       0.144643       0.649519       1.344323
      -0.033516       0.724444       1.313034
      -0.224704       0.750000       1.279456
      -0.415892       0.724444       1.245879
      -0.594051       0.649519       1.214590
      -0.747040       0.530330       1.187721
      -0.864432       0.375000       1.167104
      -0.938228       0.194114       1.154144
      -0.963399      -0.000000       1.149723
      -0.938228      -0.194114       1.154144
      -0.864432      -0.375000       1.167104
      -0.747040      -0.530330       1.187721
      -0.594051      -0.649519       1.214590
      -0.415892      -0.724444       1.245879
      -0.224704      -0.750000       1.279456
      -0.033516      -0.724444       1.313034
       0.144643      -0.649519       1.344323
       0.297631      -0.530330       1.371191
       0.415024      -0.375000       1.391808
       0.488820      -0.194114       1.404769
       0.389215       0.000000       1.448624
       0.367940       0.164072       1.444888
       0.305565       0.316964       1.433933
       0.206341       0.448254       1.416507
       0.077030       0.548997       1.393796
      -0.073557       0.612327       1.367350
      -0.235156       0.633927       1.338969
      -0.396755       0.612327       1.310588
      -0.547342       0.548997       1.284141
      -0.676653       0.448254       1.261431
      -0.775878       0.316964       1.244005
      -0.838253       0.164073       1.233050
      -0.859528      -0.000000       1.229314
      -0.838253      -0.164073       1.233050
      -0.775878      -0.316964       1.244005
      -0.676653      -0.448254       1.261431
      -0.547342      -0.548997       1.284141
      -0.396755      -0.612327       1.310588
      -0.235156      -0.633927       1.338969
      -0.073557      -0.612327       1.367350
       0.077030      -0.548997       1.393796
       0.206341      -0.448254       1.416507
       0.305565      -0.316964       1.433933
       0.367940      -0.164073       1.444888
       0.261478       0.000000       1.477034
       0.244261       0.132782       1.474010
       0.193781       0.256515       1.465145
       0.113480       0.362767       1.451042
       0.008830       0.444297       1.432663
      -0.113038       0.495549       1.411260
      -0.243818       0.513030       1.388291
      -0.374599       0.495549       1.365323
      -0.496467       0.444297       1.343920
      -0.601117       0.362767       1.325541
      -0.681418       0.256515       1.311438
      -0.731897       0.132782       1.302572
      -0.749115      -0.000000       1.299549
      -0.731897      -0.132782       1.302572
      -0.681418      -0.256515       1.311438
      -0.601117      -0.362767       1.325541
      -0.496467      -0.444297       1.343920
      -0.374599      -0.495549       1.365323
      -0.243818      -0.513030       1.388291
      -0.113038      -0.495549       1.411260
       0.008830      -0.444297       1.432663
       0.113480      -0.362767       1.451042
       0.193781      -0.256515       1.465145
       0.244261      -0.132782       1.474010
       0.131751       0.000000       1.494203
       0.118722       0.100481       1.491915
       0.080523       0.194114       1.485206
       0.019756       0.274519       1.474534
      -0.059437       0.336216       1.460625
      -0.151659       0.375000       1.444429
      -0.250625       0.388229       1.427048
      -0.349591       0.375000       1.409667
      -0.441813       0.336216       1.393471
      -0.521006       0.274519       1.379562
      -0.581773       0.194114       1.368890
      -0.619972       0.100481       1.362181
      -0.633001      -0.000000       1.359893
      -0.619972      -0.100481       1.362181
      -0.581773      -0.194114       1.368890
      -0.521006      -0.274519       1.379562
      -0.441813      -0.336216       1.393471
      -0.349591      -0.375000       1.409667
      -0.250625      -0.388229       1.427048
      -0.151659      -0.375000       1.444429
      -0.059437      -0.336216       1.460625
       0.019756      -0.274519       1.474534
       0.080523      -0.194114       1.485206
       0.118722      -0.100481       1.491915
       0.001022       0.000000       1.500000
      -0.007720       0.067415       1.498464
      -0.033349       0.130236       1.493963
      -0.074119       0.184182       1.486803
      -0.127251       0.225576       1.477472
      -0.189125       0.251597       1.466605
      -0.255524       0.260472       1.454944
      -0.321923       0.251597       1.443282
      -0.383797       0.225576       1.432416
      -0.436930       0.184182       1.423084
      -0.477699       0.130236       1.415924
      -0.503329       0.067415       1.411423
      -0.512070      -0.000000       1.409888
      -0.503329      -0.067415       1.411423
      -0.477699      -0.130236       1.415924
      -0.436930      -0.184182       1.423084
      -0.383797      -0.225576       1.432416
      -0.321923      -0.251597       1.443282
      -0.255524      -0.260472       1.454944
      -0.189125      -0.251597       1.466605
      -0.127251      -0.225576       1.477472
      -0.074119      -0.184182       1.486803
      -0.033349      -0.130236       1.493963
      -0.007720      -0.067415       1.498464
      -0.129716       0.000000       1.494381
      -0.134103       0.033836       1.493610
      -0.146967       0.065367       1.491351
      -0.167430       0.092443       1.487757
      -0.194097       0.113219       1.483074
      -0.225152       0.126279       1.477620
      -0.258479       0.130734       1.471767
      -0.291805       0.126279       1.465914
      -0.322860       0.113219       1.460460
      -0.349528       0.092443       1.455776
      -0.369991       0.065367       1.452183
      -0.382854       0.033836       1.449923
      -0.387242      -0.000000       1.449153
      -0.382854      -0.033836       1.449923
      -0.369991      -0.065367       1.452183
      -0.349528      -0.092443       1.455776
      -0.322860      -0.113219       1.460460
      -0.291805      -0.126279       1.465914
      -0.258479      -0.130734       1.471767
      -0.225152      -0.126279       1.477620
      -0.194097      -0.113219       1.483074
      -0.167430      -0.092443       1.487757
      -0.146967      -0.065367       1.491351
      -0.134103      -0.033836       1.493610
       0.963399       0.000000      -1.149723
       0.938228       0.194114      -1.154144
       0.864432       0.375000      -1.167104
       0.747040       0.530330      -1.187721
       0.594051       0.649519      -1.214590
       0.415892       0.724444      -1.245879
       0.224704       0.750000      -1.279456
       0.033516       0.724444      -1.313034
      -0.144643       0.649519      -1.344323
      -0.297632       0.530330      -1.371191
      -0.415024       0.375000      -1.391808
      -0.488820       0.194114      -1.404769
      -0.513990      -0.000000      -1.409189
      -0.488820      -0.194114      -1.404769
      -0.415024      -0.375000      -1.391808
      -0.297632      -0.530330      -1.371191
      -0.144643      -0.649519      -1.344323
       0.033516      -0.724444      -1.313034
       0.224704      -0.750000      -1.279456
       0.415892      -0.724444      -1.245879
       0.594051      -0.649519      -1.214590
       0.747040      -0.530330      -1.187721
       0.864432      -0.375000      -1.167104
       0.938228      -0.194114      -1.154144
       0.859528       0.000000      -1.229314
       0.838253       0.164072      -1.233050
       0.775878       0.316964      -1.244005
       0.676653       0.448254      -1.261431
       0.547342       0.548997      -1.284141
       0.396755       0.612327      -1.310588
       0.235156       0.633927      -1.338969
       0.073557       0.612327      -1.367350
      -0.077030       0.548997      -1.393796
      -0.206341       0.448254      -1.416507
      -0.305565       0.316964      -1.433933
      -0.367940       0.164073      -1.444888
      -0.389215      -0.000000      -1.448624
      -0.367940      -0.164073      -1.444888
      -0.305565      -0.316964      -1.433933
      -0.206341      -0.448254      -1.416507
      -0.077030      -0.548997      -1.393796
       0.073557      -0.612327      -1.367350
       0.235156      -0.633927      -1.338969
       0.396755      -0.612327      -1.310588
       0.547342      -0.548997      -1.284141
       0.676653      -0.448254      -1.261431
       0.775878      -0.316964      -1.244005
       0.838253      -0.164073      -1.233050
       0.749115       0.000000      -1.299549
       0.731897       0.132782      -1.302572
       0.681418       0.256515      -1.311438
       0.601117       0.362767      -1.325541
       0.496467       0.444297      -1.343920
       0.374599       0.495549      -1.365323
       0.243818       0.513030      -1.388291
       0.113038       0.495549      -1.411260
      -0.008830       0.444297      -1.432663
      -0.113480       0.362767      -1.451042
      -0.193781       0.256515      -1.465145
      -0.244261       0.132782      -1.474010
      -0.261478      -0.000000      -1.477034
      -0.244261      -0.132782      -1.474010
      -0.193781      -0.256515      -1.465145
      -0.113480      -0.362767      -1.451042
      -0.008830      -0.444297      -1.432663
       0.113038      -0.495549      -1.411260
       0.243818      -0.513030      -1.388291
       0.374599      -0.495549      -1.365323
       0.496467      -0.444297      -1.343920
       0.601117      -0.362767      -1.325541
       0.681418      -0.256515      -1.311438
       0.731897      -0.132782      -1.302572
       0.633001       0.000000      -1.359893
       0.619972       0.100481      -1.362181
       0.581773       0.194114      -1.368890
       0.521006       0.274519      -1.379562
       0.441813       0.336216      -1.393471
       0.349591       0.375000      -1.409667
       0.250625       0.388229      -1.427048
       0.151659       0.375000      -1.444429
       0.059437       0.336216      -1.460625
      -0.019756       0.274519      -1.474534
      -0.080523       0.194114      -1.485206
      -0.118722       0.100481      -1.491915
      -0.131751      -0.000000      -1.494203
      -0.118722      -0.100481      -1.491915
      -0.080523      -0.194114      -1.485206
      -0.019756      -0.274519      -1.474534
       0.059437      -0.336216      -1.460625
       0.151659      -0.375000      -1.444429
       0.250625      -0.388229      -1.427048
       0.349591      -0.375000      -1.409667
       0.441813      -0.336216      -1.393471
       0.521006      -0.274519      -1.379562
       0.581773      -0.194114      -1.368890
       0.619972      -0.100481      -1.362181
       0.512070       0.000000      -1.409888
       0.503329       0.067415      -1.411423
       0.477699       0.130236      -1.415924
       0.436930       0.184182      -1.423084
       0.383797       0.225576      -1.432416
       0.321923       0.251597      -1.443282
       0.255524       0.260472      -1.454944
       0.189125       0.251597      -1.466605
       0.127251       0.225576      -1.477472
       0.074119       0.184182      -1.486803
       0.033349       0.130236      -1.493963
       0.007720       0.067415      -1.498464
      -0.001022      -0.000000      -1.500000
       0.007720      -0.067415      -1.498464
       0.033349      -0.130236      -1.493963
       0.074119      -0.184182      -1.486803
       0.127251      -0.225576      -1.477472
       0.189125      -0.251597      -1.466605
       0.255524      -0.260472      -1.454944
       0.321923      -0.251597      -1.443282
       0.383797      -0.225576      -1.432416
       0.436930      -0.184182      -1.423084
       0.477699      -0.130236      -1.415924
       0.503329      -0.067415      -1.411423
       0.387242       0.000000      -1.449153
       0.382854       0.033836      -1.449923
       0.369991       0.065367      -1.452183
       0.349528       0.092443      -1.455776
       0.322860       0.113219      -1.460460
       0.291805       0.126279      -1.465914
       0.258479       0.130734      -1.471767
       0.225152       0.126279      -1.477620
       0.194097       0.113219      -1.483074
       0.167430       0.092443      -1.487757
       0.146967       0.065367      -1.491351
       0.134103       0.033836      -1.493610
       0.129716      -0.000000      -1.494381
       0.134103      -0.033836      -1.493610
       0.146967      -0.065367      -1.491351
       0.167430      -0.092443      -1.487757
       0.194097      -0.113219      -1.483074
       0.225152      -0.126279      -1.477620
       0.258479      -0.130734      -1.471767
       0.291805      -0.126279      -1.465914
       0.322860      -0.113219      -1.460460
       0.349528      -0.092443      -1.455776
       0.369991      -0.065367      -1.452183
       0.382854      -0.033836      -1.449923
VERTICES      288     576
 1        0
 1        1
 1        2
 1        3
 1        4
 1        5
 1        6
 1        7
 1        8
 1        9
 1       10
 1       11
 1       12
 1       13
 1       14
 1       15
 1       16
 1       17
 1       18
 1       19
 1       20
 1       21
 1       22
 1       23
 1       24
 1       25
 1       26
 1       27
 1       28
 1       29
 1       30
 1       31
 1       32
 1       33
 1       34
 1       35
 1       36
 1       37
 1       38
 1       39
 1       40
 1       41
 1       42
 1       43
 1       44
 1       45
 1       46
 1       47
 1       48
 1       49
 1       50
 1       51
 1       52
 1       53
 1       54
 1       55
 1       56
 1       57
 1       58
 1       59
 1       60
 1       61
 1       62
 1       63
 1       64
 1       65
 1       66
 1       67
 1       68
 1       69
 1       70
 1       71
 1       72
 1       73
 1       74
 1       75
 1       76
 1       77
 1       78
 1       79
 1       80
 1       81
 1       82
 1       83
 1       84
 1       85
 1       86
 1       87
 1       88
 1       89
 1       90
 1       91
 1       92
 1       93
 1       94
 1       95
 1       96
 1       97
 1       98
 1       99
 1      100
 1      101
 1      102
 1      103
 1      104
 1      105
 1      106
 1      107
 1      108
 1      109
 1      110
 1      111
 1      112
 1      113
 1      114
 1      115
 1      116
 1      117
 1      118
 1      119
 1      120
 1      121
 1      122
 1      123
 1      124
 1      125
 1      126
 1      127
 1      128
 1      129
 1      130
 1      131
 1      132
 1      133
 1      134
 1      135
 1      136
 1      137
 1      138
 1      139
 1      140
 1      141
 1      142
 1      143
 1      144
 1      145
 1      146
 1      147
 1      148
 1      149
 1      150
 1      151
 1      152
 1      153
 1      154
 1      155
 1      156
 1      157
 1      158
 1      159
 1      160
 1      161
 1      162
 1      163
 1      164
 1      165
 1      166
 1      167
 1      168
 1      169
 1      170
 1      171
 1      172
 1      173
 1      174
 1      175
 1      176
 1      177
 1      178
 1      179
 1      180
 1      181
 1      182
 1      183
 1      184
 1      185
 1      186
 1      187
 1      188
 1      189
 1      190
 1      191
 1      192
 1      193
 1      194
 1      195
 1      196
 1      197
 1      198
 1      199
 1      200
 1      201
 1      202
 1      203
 1      204
 1      205
 1      206
 1      207
 1      208
 1      209
 1      210
 1      211
 1      212
 1      213
 1      214
 1      215
 1      216
 1      217
 1      218
 1      219
 1      220
 1      221
 1      222
 1      223
 1      224
 1      225
 1      226
 1      227
 1      228
 1      229
 1      230
 1      231
 1      232
 1      233
 1      234
 1      235
 1      236
 1      237
 1      238
 1      239
 1      240
 1      241
 1      242
 1      243
 1      244
 1      245
 1      246
 1      247
 1      248
 1      249
 1      250
 1      251
 1      252
 1      253
 1      254
 1      255
 1      256
 1      257
 1      258
 1      259
 1      260
 1      261
 1      262
 1      263
 1      264
 1      265
 1      266
 1      267
 1      268
 1      269
 1      270
 1      271
 1      272
 1      273
 1      274
 1      275
 1      276
 1      277
 1      278
 1      279
 1      280
 1      281
 1      282
 1      283
 1      284
 1      285
 1      286
 1      287
POINT_DATA      288
SCALARS hemisphere int 1
LOOKUP_TABLE default
 1
 1
 1
 1
 1
 1
 1
 1
 1
 1
 1
 1
 1
 1
 1
 1
 1
 1
 1
 1
 1
 1
 1
 1
 1
 1
 1
 1
 1
 1
 1
 1
 1
 1
 1
 1
 1
 1
 1
 1
 1
 1
 1
 1
 1
 1
 1
 1
 1
 1
 1
 1
 1
 1
 1
 1
 1
 1
 1
 1
 1
 1
 1
 1
 1
 1
 1
 1
 1
 1
 1
 1
 1
 1
 1
 1
 1
 1
 1
 1
 1
 1
 1
 1
 1
 1
 1
 1
 1
 1
 1
 1
 1
 1
 1
 1
 1
 1
 1
 1
 1
 1
 1
 1
 1
 1
 1
 1
 1
 1
 1
 1
 1
 1
 1
 1
 1
 1
 1
 1
 1
 1
 1
 1
 1
 1
 1
 1
 1
 1
 1
 1
 1
 1
 1
 1
 1
 1
 1
 1
 1
 1
 1
 1
-1
-1
-1
-1
-1
-1
-1
-1
-1
-1
-1
-1
-1
-1
-1
-1
-1
-1
-1
-1
-1
-1
-1
-1
-1
-1
-1
-1
-1
-1
-1
-1
-1
-1
-1
-1
-1
-1
-1
-1
-1
-1
-1
-1
-1
-1
-1
-1
-1
-1
-1
-1
-1
-1
-1
-1
-1
-1
-1
-1
-1
-1
-1
-1
-1
-1
-1
-1
-1
-1
-1
-1
-1
-1
-1
-1
-1
-1
-1
-1
-1
-1
-1
-1
-1
-1
-1
-1
-1
-1
-1
-1
-1
-1
-1
-1
-1
-1
-1
-1
-1
-1
-1
-1
-1
-1
-1
-1
-1
-1
-1
-1
-1
-1
-1
-1
-1
-1
-1
-1
-1
-1
-1
-1
-1
-1
-1
-1
-1
-1
-1
-1
-1
-1
-1
-1
-1
-1
-1
-1
-1
-1
-1
-1
