<?xml version="1.0"?>
<VTKFile type="StructuredGrid" version="0.1" byte_order="LittleEndian" header_type="UInt32" compressor="vtkZLibDataCompressor">
  <StructuredGrid WholeExtent="0 60 0 20 0 20">
  <Piece Extent="0 60 0 20 0 20">
    <PointData Vectors="B_total">
      <DataArray type="Float32" Name="B_total" NumberOfComponents="3" format="ascii" RangeMin="0" RangeMax="57318.801127294086">
        -8.679972 -0.86148876 3.3251433 -8.98793 -0.88637686 3.4080153
        -9.305727 -0.9130836 3.4914427 -9.633711 -0.94183135 3.5752425
        -9.97228 -0.9728711 3.659214 -10.321879 -1.0064859 3.7431362
        -10.68302 -1.0429952 3.8267624 -11.056273 -1.0827584 3.9098196
        -11.442292 -1.1261814 3.9919987 -11.841814 -1.1737208 4.072948
        -12.255667 -1.2258917 4.152267 -12.684777 -1.2832738 4.229491
        -13.130183 -1.3465198 4.304083 -13.593023 -1.4163643 4.375417
        -14.074551 -1.4936326 4.442763 -14.576123 -1.5792514 4.50527
        -15.099197 -1.6742604 4.5619493 -15.645318 -1.7798227 4.6116567
        -16.216097 -1.8972396 4.6530776 -16.813196 -2.0279622 4.684715
        -17.4383 -2.173607 4.7048783 -18.093073 -2.3359745 4.7116823
        -18.779156 -2.5170648 4.703045 -19.498104 -2.7191038 4.6766944
        -20.251377 -2.9445703 4.630176 -21.040298 -3.1962314 4.560858
        -21.86602 -3.4771788 4.4659243 -22.729479 -3.790889 4.3423843
        -23.63132 -4.1412735 4.18705 -24.571804 -4.532744 3.9965281
        -25.550638 -4.970277 3.7672307 -26.566788 -5.459476 3.4954157
        -27.618244 -6.006628 3.177298 -28.701794 -6.6187525 2.8092308
        -29.812815 -7.303642 2.3879473 -30.945137 -8.06989 1.9108429
        -32.09099 -8.926888 1.3762071 -33.240902 -9.884736 0.78334475
        -34.38358 -10.953986 0.1325376 -35.50542 -12.145052 -0.575132
        -36.58968 -13.46707 -1.337922 -37.615227 -14.92597 -2.1531975
        -38.55524 -16.521555 -3.016388 -39.376774 -18.243683 -3.9187512
        -40.042233 -20.067991 -4.8440547 -40.514072 -21.952213 -5.7647295
        -40.763187 -23.834658 -6.6389904 -40.7801 -25.636608 -7.4104867
        -40.586426 -27.26979 -8.011914 -40.242783 -28.648844 -8.372835
        -39.849407 -29.706676 -8.430342 -20.217812 -15.686198 -3.947143
        -0.07573115 -0.35787773 0.41094446 -0.06655514 -0.37453747 0.40094423
        -0.05279827 -0.38760853 0.39445066 -0.036429644 -0.39613628 0.39199972
        -0.019471645 -0.39993858 0.39348936 -0.003595829 -0.39948368 0.39830542
        0.010072231 -0.39563847 0.40557194 0.020967007 -0.38938713 0.41435814
        0.028985023 -0.38167763 0.4238299 -8.742812 -0.8192811 3.3610954
        -9.05418 -0.8427875 3.4437814 -9.375666 -0.8680166 3.5269017
        -9.707652 -0.8951738 3.6102648 -10.05057 -0.92449087 3.6936622
        -10.404903 -0.95622945 3.7768638 -10.771207 -0.99068433 3.8596148
        -11.150102 -1.0281881 3.9416313 -11.542297 -1.0691162 4.0225916
        -11.948595 -1.1138922 4.1021314 -12.369896 -1.1629939 4.179832
        -12.807212 -1.216961 4.2552075 -13.26167 -1.2764026 4.327695
        -13.73452 -1.3420055 4.3966336 -14.227132 -1.4145448 4.4612517
        -14.740999 -1.4948938 4.520645 -15.277729 -1.5840352 4.5737596
        -15.839033 -1.6830747 4.6193676 -16.42671 -1.7932541 4.656057
        -17.042625 -1.9159659 4.6822085 -17.688684 -2.0527709 4.6959906
        -18.366814 -2.2054167 4.69535 -19.078913 -2.3758614 4.67801
        -19.82685 -2.5662994 4.6414723 -20.612425 -2.7791972 4.5830245
        -21.437347 -3.0173352 4.4997363 -22.303202 -3.2838535 4.388446
        -23.21143 -3.5823267 4.2457576 -24.163256 -3.9168303 4.067999
        -25.159578 -4.292029 3.851195 -26.200827 -4.7132688 3.5910559
        -27.286758 -5.1866784 3.2829943 -28.41619 -5.719272 2.9222188
        -29.586763 -6.3190646 2.5038939 -30.794731 -6.995192 2.023376
        -32.034767 -7.7580366 1.4764456 -33.299854 -8.619347 0.85948884
        -34.581123 -9.592278 0.16951871 -35.86741 -10.691248 -0.5960227
        -37.144405 -11.931398 -1.4395493 -38.39304 -13.32734 -2.3635492
        -39.5872 -14.890842 -3.3700938 -40.691254 -16.627104 -4.4590693
        -41.658485 -18.529528 -5.62452 -42.432358 -20.573492 -6.8491416
        -42.952522 -22.710403 -8.097885 -43.16659 -24.864231 -9.312801
        -43.046913 -26.933208 -10.411906 -42.608612 -28.799053 -11.294511
        -41.922935 -30.343788 -11.853766 -41.11955 -31.471554 -11.994215
        -40.37412 -32.12948 -11.649571 -14.740035 -12.117165 -3.7329335
        -0.0839107 -0.37205887 0.36591625 -0.06532383 -0.38927364 0.35731697
        -0.043501377 -0.4005432 0.3548193 -0.02134943 -0.40571404 0.35806084
        -0.0011377335 -0.4055128 0.36593437 0.015715122 -0.4011364 0.37701988
        0.02864647 -0.39393902 0.38987947 0.037709713 -0.3851452 0.40331602
        -8.808274 -0.77474564 3.3984241 -9.123018 -0.796527 3.4809768
        -9.448143 -0.81990355 3.5638444 -9.78406 -0.8450619 3.6468282
        -10.131227 -0.87221235 3.7297106 -10.490169 -0.90159225 3.8122528
        -10.861476 -0.9334693 3.8941913 -11.245819 -0.96814567 3.9752297
        -11.643959 -1.0059627 4.055036 -12.056758 -1.0473065 4.13323
        -12.485184 -1.0926129 4.209376 -12.930327 -1.1423751 4.2829657
        -13.393404 -1.1971515 4.353408 -13.875764 -1.2575732 4.420009
        -14.378891 -1.3243544 4.4819536 -14.904408 -1.3983023 4.5382824
        -15.454064 -1.4803292 4.587874 -16.029736 -1.5714645 4.629419
        -16.633398 -1.6728704 4.6614027 -17.26712 -1.7858559 4.682085
        -17.933035 -1.9118958 4.689489 -18.633308 -2.0526514 4.6813903
        -19.370127 -2.209996 4.6553116 -20.145668 -2.3860445 4.6085258
        -20.96209 -2.5831947 4.538051 -21.8215 -2.8041666 4.440643
        -22.725973 -3.0520751 4.3127813 -23.677496 -3.330496 4.1506352
        -24.677935 -3.6435595 3.9500134 -25.728933 -3.9960523 3.706308
        -26.83178 -4.3935432 3.4144533 -27.987186 -4.842519 3.0689182
        -29.195051 -5.3505383 2.6637616 -30.454203 -5.9264197 2.1927688
        -31.762175 -6.5804524 1.6496282 -33.115055 -7.3246517 1.0281084
        -34.507313 -8.173026 0.32210588 -35.931526 -9.141809 -0.4745102
        -37.37769 -10.2495 -1.3683385 -38.831783 -11.516477 -2.3670068
        -40.27326 -12.963772 -3.4794936 -41.671295 -14.610477 -4.715453
        -42.98053 -16.469242 -6.082527 -44.137756 -18.539536 -7.580745
        -45.062313 -20.799059 -9.193893 -45.663162 -23.194748 -10.879146
        -45.85496 -25.636375 -12.558128 -45.582306 -27.996649 -14.113894
        -44.84758 -30.121899 -15.398237 -43.73288 -31.854446 -16.251314
        -42.40557 -33.063034 -16.530176 -41.100708 -33.672913 -16.138235
        -40.082695 -33.68451 -15.044626 -0.10683799 -0.35989952 0.3245287
        -0.08199835 -0.38284302 0.31270123 -0.053124905 -0.3981533 0.30993652
        -0.024373055 -0.4056902 0.3154335 0.0012083054 -0.40650177 0.32732487
        0.021892548 -0.40223408 0.3433571 0.037158012 -0.39463234 0.36141253
        0.047323227 -0.38523674 0.37980175 -8.873922 -0.72727376 3.4360895
        -9.191914 -0.74700856 3.5185797 -9.520526 -0.76818466 3.6012735
        -9.860192 -0.79096776 3.6839645 -10.211405 -0.8155451 3.7664268
        -10.574716 -0.84212744 3.848414 -10.950753 -0.87095314 3.9296525
        -11.340232 -0.90229124 4.009836 -11.743958 -0.9364461 4.088621
        -12.16285 -0.9737618 4.1656127 -12.597939 -1.0146285 4.2403574
        -13.050385 -1.0594878 4.312327 -13.521488 -1.1088406 4.3809032
        -14.012689 -1.1632547 4.4453583 -14.525578 -1.223374 4.504835
        -15.0619 -1.2899289 4.5583224 -15.623538 -1.363747 4.6046333
        -16.21252 -1.4457656 4.6423783 -16.830994 -1.5370467 4.669944
        -17.481218 -1.6387917 4.685473 -18.16554 -1.7523607 4.6868463
        -18.886372 -1.879294 4.671673 -19.646172 -2.021338 4.63728
        -20.447428 -2.1804771 4.580712 -21.29266 -2.3589787 4.498723
        -22.184395 -2.559435 4.387754 -23.125196 -2.7848403 4.2439203
        -24.117638 -3.0386686 4.0629478 -25.164272 -3.3249717 3.8401065
        -26.267565 -3.6485052 3.570129 -27.429756 -4.014871 3.24713
        -28.652668 -4.430689 2.8645606 -29.937487 -4.9038024 2.415228
        -31.284523 -5.44353 1.8913679 -32.69303 -6.060977 1.2847557
        -34.161076 -6.7694225 0.58675575 -35.68538 -7.584767 -0.2118144
        -37.26096 -8.525981 -1.1211348 -38.880165 -9.615411 -2.1531973
        -40.530663 -10.87867 -3.3227854 -42.191704 -12.343563 -4.648123
        -43.828648 -14.037467 -6.150065 -45.386177 -15.982183 -7.848399
        -46.78237 -18.18582 -9.753799 -47.907238 -20.631554 -11.854897
        -48.630413 -23.265043 -14.102087 -48.82188 -25.98384 -16.392456
        -48.38624 -28.634785 -18.56295 -47.3043 -31.025444 -20.399605
        -45.668217 -32.952587 -21.666992 -43.69294 -34.24369 -22.153904
        -41.691856 -34.798973 -21.721287 -40.019604 -34.61769 -20.333717
        -39.001225 -33.797592 -18.060928 -0.10453653 -0.36411667 0.26255608
        -0.066721916 -0.38528633 0.25875187 -0.029664993 -0.3967371 0.26669788
        0.0025186539 -0.39986038 0.28339672 0.027798653 -0.39680958 0.30541563
        0.04578781 -0.3897934 0.32970047 0.05717945 -0.38066673 0.35395002
        -8.937175 -0.6764784 3.4727657 -9.25819 -0.69387716 3.5552669
        -9.590039 -0.71254146 3.6378722 -9.933179 -0.73261523 3.7203684
        -10.288124 -0.75426066 3.8025224 -10.655457 -0.7776607 3.88408
        -11.035839 -0.80302227 3.9647593 -11.430021 -0.830579 4.0442457
        -11.838855 -0.8605956 4.1221824 -12.263303 -0.89337176 4.1981635
        -12.704455 -0.92924744 4.2717195 -13.163538 -0.96860844 4.3423023
        -13.641923 -1.0118928 4.409269 -14.141135 -1.0595984 4.471861
        -14.662863 -1.1122909 4.5291824 -15.208955 -1.1706134 4.580175
        -15.78142 -1.2352971 4.6235895 -16.382425 -1.3071722 4.6579638
        -17.014278 -1.3871824 4.681593 -17.67941 -1.4763993 4.6925097
        -18.380379 -1.5760415 4.688465 -19.119812 -1.6874943 4.6669097
        -19.900436 -1.8123375 4.62499 -20.72504 -1.9523766 4.559533
        -21.596489 -2.1096876 4.467041 -22.517727 -2.2866592 4.3436584
        -23.491804 -2.4860756 4.185141 -24.521885 -2.7111926 3.986785
        -25.61123 -2.965845 3.7433295 -26.763155 -3.254579 3.448843
        -27.98091 -3.5828128 3.0966127 -29.267529 -3.9570296 2.6790452
        -30.625633 -4.3850236 2.187637 -32.05726 -4.8762093 1.6129777
        -33.563732 -5.4420156 0.9447441 -35.145607 -6.0963964 0.17158413
        -36.802593 -6.8564515 -0.71928287 -38.53312 -7.7431016 -1.7429309
        -40.333195 -8.7817135 -2.918044 -42.193687 -10.002314 -4.2685795
        -44.0954 -11.438893 -5.824929 -46.001366 -13.12694 -7.6232247
        -47.846996 -15.098095 -9.700666 -49.53041 -17.370872 -12.084564
        -50.907963 -19.937115 -14.773958 -51.801346 -22.745365 -17.715313
        -52.023212 -25.685427 -20.778141 -51.423714 -28.5817 -23.741392
        -49.950634 -31.204056 -26.30355 -47.70393 -33.302406 -28.1254
        -44.95683 -34.66051 -28.900585 -42.12309 -35.152336 -28.4319
        -39.673393 -34.77762 -26.68121 -38.03135 -33.6601 -23.769966
        -23.538586 -20.177494 -12.408196 -0.08620739 -0.35824394 0.20490456
        -0.03893757 -0.37565708 0.21476364 0.0013170242 -0.3829527 0.23650932
        0.03213501 -0.3827963 0.2651043 0.053380013 -0.37783527 0.29629707
        0.06626892 -0.37027168 0.32699966 -8.9955015 -0.62223005 3.5070004
        -9.319229 -0.63704145 3.5895753 -9.653975 -0.6529257 3.672169
        -10.000214 -0.6700038 3.7545624 -10.358484 -0.68841183 3.8365166
        -10.729393 -0.70830375 3.9177709 -11.113628 -0.7298534 3.9980364
        -11.511975 -0.7532575 4.076989 -11.925323 -0.7787389 4.154266
        -12.354674 -0.8065504 4.2294464 -12.801171 -0.836979 4.3020487
        -13.266093 -0.8703507 4.3715076 -13.750877 -0.9070365 4.437159
        -14.257123 -0.94745857 4.498217 -14.786601 -0.9920977 4.5537524
        -15.341256 -1.0415014 4.6026626 -15.923207 -1.0962936 4.6436477
        -16.534742 -1.1571846 4.675178 -17.178308 -1.2249842 4.6954694
        -17.856503 -1.300615 4.7024574 -18.572052 -1.3851289 4.693775
        -19.327803 -1.4797276 4.666736 -20.12671 -1.5857869 4.6183214
        -20.971846 -1.704887 4.545165 -21.866402 -1.8388556 4.4435396
        -22.813707 -1.9898076 4.309316 -23.817286 -2.1602254 4.1379223
        -24.880861 -2.3530333 3.9242506 -26.008385 -2.5717046 3.66254
        -27.20401 -2.8203924 3.34623 -28.472 -3.104095 2.9678037
        -29.816628 -3.428862 2.5186572 -31.242025 -3.8020558 1.9889872
        -32.752075 -4.2326956 1.3677133 -34.350403 -4.731911 0.64234316
        -36.04043 -5.313536 -0.20136333 -37.825382 -5.994857 -1.1801362
        -39.70794 -6.797493 -2.314539 -41.688877 -7.748287 -3.6310153
        -43.763817 -8.8799095 -5.1643686 -45.916943 -10.230612 -6.9598017
        -48.11095 -11.842207 -9.072625 -50.27355 -13.754927 -11.562819
        -52.283173 -15.997718 -14.480981 -53.959858 -18.57299 -17.8435
        -55.070503 -21.436653 -21.597767 -55.358788 -24.477818 -25.584927
        -54.60553 -27.50707 -29.51527 -52.712612 -30.265478 -32.97728
        -49.78367 -32.463474 -35.496685 -46.160072 -33.84629 -36.64129
        -42.378384 -34.264824 -36.13774 -39.05169 -33.720795 -33.948143
        -36.721375 -32.36333 -30.268063 -35.74302 -30.44011 -25.449562
        -0.11390209 -0.31445694 0.15491295 -0.054340363 -0.3401842 0.1647911
        -0.0044059753 -0.35390282 0.19073963 0.03309536 -0.3587141 0.22562885
        0.05835247 -0.3576851 0.26365948 0.07324314 -0.35331059 0.3008108
        -9.046594 -0.5646576 3.537365 -9.372643 -0.5766717 3.6200538
        -9.709865 -0.5895533 3.7026923 -10.058749 -0.6033993 3.785056
        -10.419853 -0.6183192 3.866902 -10.793804 -0.6344368 3.947964
        -11.181314 -0.65189195 4.0279465 -11.583194 -0.670843 4.10652
        -12.000362 -0.69146955 4.1833124 -12.433865 -0.7139753 4.257896
        -12.884877 -0.738592 4.329776 -13.35473 -0.7655832 4.398373
        -13.84491 -0.7952491 4.463006 -14.357081 -0.82793164 4.5228662
        -14.893085 -0.8640211 4.5769963 -15.454947 -0.9039628 4.624258
        -16.044876 -0.9482648 4.6633067 -16.665266 -0.9975068 4.692558
        -17.318682 -1.0523515 4.71016 -18.00786 -1.1135556 4.713967
        -18.735678 -1.1819844 4.701513 -19.505165 -1.2586298 4.6699944
        -20.319485 -1.3446316 4.616252 -21.181948 -1.4413041 4.5367546
        -22.09604 -1.5501753 4.4275775 -23.065435 -1.6730212 4.284355
        -24.094078 -1.8119392 4.102227 -25.186207 -1.9694148 3.8757298
        -26.346407 -2.1484203 3.5986564 -27.579603 -2.3525372 3.2638793
        -28.891016 -2.5861094 2.8631568 -30.286097 -2.8544443 2.38695
        -31.770445 -3.164069 1.8242464 -33.349792 -3.523075 1.1623856
        -35.030098 -3.9415815 0.38676894 -36.81777 -4.432354 -0.5197096
        -38.71982 -5.011609 -1.5777819 -40.743618 -5.699992 -2.8137271
        -42.895443 -6.5236464 -4.262224 -45.176758 -7.515125 -5.9698696
        -47.576736 -8.713598 -7.9983296 -50.05979 -10.163441 -10.424835
        -52.548187 -11.909758 -13.336327 -54.902466 -13.989113 -16.812496
        -56.90651 -16.413952 -20.893946 -58.269276 -19.150953 -25.535234
        -58.657715 -22.097279 -30.551271 -57.77171 -25.064377 -35.577404
        -55.455452 -27.78372 -40.074257 -51.810867 -29.946777 -43.404987
        -47.253822 -31.277617 -44.983215 -42.461147 -31.614325 -44.44291
        -38.208973 -30.961311 -41.75004 -35.170025 -29.484482 -37.19652
        -33.763023 -27.452972 -31.283283 -10.558395 -7.886813 -7.4441757
        -0.07813835 -0.29031086 0.1240921 -0.01684761 -0.31256962 0.15174866
        0.028617859 -0.32445812 0.19130611 0.058885574 -0.32931042 0.23501682
        0.076535225 -0.32982302 0.27776527 -9.088478 -0.5041252 3.562574
        -9.416398 -0.5131747 3.6453915 -9.755611 -0.52287686 3.7281053
        -10.106622 -0.53330415 3.8104873 -10.469998 -0.54453903 3.8922908
        -10.846386 -0.5566742 3.9732454 -11.236516 -0.56981474 4.0530515
        -11.641221 -0.58407974 4.131375 -12.061443 -0.5996043 4.207837
        -12.498256 -0.6165417 4.2820024 -12.952868 -0.6350666 4.3533688
        -13.426646 -0.6553778 4.4213457 -13.921124 -0.67770183 4.485237
        -14.438008 -0.70229745 4.5442176 -14.979201 -0.7294599 4.5973067
        -15.546787 -0.75952655 4.643339 -16.143053 -0.7928832 4.6809344
        -16.770475 -0.82997096 4.708466 -17.431715 -0.871294 4.724028
        -18.129616 -0.9174306 4.7254105 -18.867182 -0.96904266 4.710069
        -19.647585 -1.0268912 4.6751065 -20.474163 -1.0918533 4.6172523
        -21.35043 -1.1649463 4.5328455 -22.280096 -1.247348 4.417795
        -23.26714 -1.3404461 4.267549 -24.315853 -1.4458787 4.077011
        -25.43091 -1.5655988 3.840425 -26.61743 -1.7019538 3.5512114
        -27.881 -1.857789 3.2017708 -29.227674 -2.0365791 2.7832499
        -30.663937 -2.2425992 2.285311 -32.196697 -2.481151 1.6959026
        -33.83335 -2.7588696 1.000978 -35.58203 -3.0841384 0.18406796
        -37.451935 -3.4676573 -0.7745342 -39.45372 -3.9231927 -1.8992665
        -41.59935 -4.4685163 -3.2217927 -43.900673 -5.126483 -4.7847004
        -46.36535 -5.926056 -6.646101 -48.988358 -6.902836 -8.884079
        -51.737366 -8.098263 -11.598238 -54.53167 -9.556164 -14.903804
        -57.217045 -11.314814 -18.912317 -59.54472 -13.392885 -23.693
        -61.168144 -15.768763 -29.213188 -61.677402 -18.356638 -35.266632
        -60.687737 -20.988285 -41.415005 -57.979492 -23.415306 -46.98545
        -53.647617 -25.345451 -51.165577 -48.18202 -26.513557 -53.19974
        -42.404633 -26.763584 -52.62033 -37.260616 -26.102125 -49.400673
        -33.555485 -24.692688 -43.94319 -31.76606 -22.795122 -36.91449
        -31.996431 -20.685127 -29.02366 -0.11178207 -0.2296915 0.10087204
        -0.037828445 -0.26152897 0.1260395 0.016878128 -0.2819314 0.16700935
        0.05327797 -0.2941537 0.21397781 0.07469082 -0.30094624 0.26045132
        -9.119599 -0.44119355 3.5815723 -9.44889 -0.4471538 3.6645067
        -9.789559 -0.4535452 3.7472994 -10.142123 -0.46041593 3.8297207
        -10.50716 -0.46782047 3.9115214 -10.885327 -0.47582033 3.992427
        -11.277369 -0.4844853 4.072136 -11.684131 -0.4938943 4.15031
        -12.106576 -0.50413716 4.2265663 -12.545796 -0.5153159 4.300465
        -13.003026 -0.5275466 4.371497 -13.479656 -0.54096174 4.439064
        -13.977252 -0.5557125 4.5024605 -14.497558 -0.57197136 4.560848
        -15.042512 -0.5899358 4.6132307 -15.614251 -0.6098315 4.6584225
        -16.21511 -0.6319168 4.6950192 -16.84763 -0.6564877 4.7213616
        -17.514538 -0.683883 4.7355065 -18.218754 -0.7144917 4.7351966
        -18.963385 -0.7487602 4.717832 -19.751703 -0.78720295 4.680448
        -20.587172 -0.83041364 4.619693 -21.473457 -0.87908405 4.5318074
        -22.414442 -0.9340151 4.412586 -23.414328 -0.99615586 4.2573376
        -24.477667 -1.0666293 4.060788 -25.609465 -1.1467797 3.816964
        -26.81525 -1.2382295 3.519012 -28.101116 -1.3429539 3.1589727
        -29.473759 -1.4633763 2.727531 -30.940468 -1.6024944 2.2137415
        -32.509182 -1.764048 1.6047497 -34.188637 -1.952747 0.88543046
        -35.988705 -2.1745877 0.03783703 -37.920895 -2.4372833 -0.9598191
        -39.99887 -2.7508433 -2.1349876 -42.238487 -3.1283147 -3.5237715
        -44.656406 -3.586657 -5.175355 -47.26582 -4.1476336 -7.157618
        -50.067192 -4.838395 -9.562765 -53.031914 -5.691155 -12.509983
        -56.078205 -6.7409124 -16.139847 -59.04122 -8.01967 -20.593264
        -61.64622 -9.545741 -25.967268 -63.500385 -11.307402 -32.244354
        -64.12728 -13.24326 -39.203766 -63.06633 -15.226409 -46.34456
        -60.03813 -17.064384 -52.874252 -55.127907 -18.526756 -57.818787
        -48.889446 -19.401997 -60.26402 -42.274193 -19.565239 -59.647335
        -36.378407 -19.023226 -55.951054 -32.123844 -17.909355 -49.684296
        -30.033968 -16.431973 -41.66968 -30.192104 -14.807533 -32.76484
        -0.15486717 -0.16606998 0.1020813 -0.06782341 -0.2064619 0.11924744
        -0.003063202 -0.23530102 0.1571312 0.04047966 -0.25531435 0.20376015
        0.0667181 -0.26897883 0.25119114 -9.1388445 -0.37657487 3.5935836
        -9.46897 -0.37936306 3.6766016 -9.810529 -0.382357 3.7594564
        -10.16404 -0.38558015 3.841916 -10.530087 -0.38905892 3.9237297
        -10.909336 -0.39282334 4.0046215 -11.302538 -0.39690736 4.0842876
        -11.710551 -0.40134966 4.162389 -12.134346 -0.40619406 4.2385383
        -12.575027 -0.41149044 4.3122945 -13.033844 -0.417296 4.3831434
        -13.512203 -0.42367554 4.4504833 -14.011688 -0.4307035 4.5136013
        -14.534065 -0.43846485 4.571653 -15.081297 -0.447057 4.623632
        -15.655547 -0.45659143 4.66834 -16.259182 -0.467196 4.7043576
        -16.894781 -0.47901726 4.730008 -17.565113 -0.49222365 4.7433243
        -18.27315 -0.50700843 4.7420206 -19.022047 -0.5235943 4.723464
        -19.815145 -0.54223794 4.6846476 -20.655987 -0.5632368 4.6221724
        -21.548323 -0.5869385 4.532219 -22.496155 -0.6137449 4.410513
        -23.503809 -0.6441355 4.2522726 -24.576004 -0.6786788 4.052123
        -25.71795 -0.71805745 3.8039536 -26.935429 -0.763098 3.5007396
        -28.234854 -0.8148098 3.1343024 -29.623314 -0.87443584 2.6950376
        -31.10862 -0.9435178 2.1716213 -32.699356 -1.0239856 1.5506933
        -34.40512 -1.118278 0.8164474 -36.236908 -1.2295089 -0.05000758
        -38.20773 -1.361697 -1.0718017 -40.33324 -1.5200758 -2.278338
        -42.631878 -1.7114918 -3.7086356 -45.123547 -1.9448895 -5.4162445
        -47.82525 -2.2318172 -7.475566 -50.741318 -2.5868053 -9.9883375
        -53.846096 -3.0272841 -13.087111 -57.057663 -3.5724707 -16.930012
        -60.20494 -4.2403297 -21.678684 -62.99664 -5.0417447 -27.450428
        -65.009384 -5.9714966 -34.23988 -65.721664 -6.997427 -41.81828
        -64.62032 -8.051727 -49.64286 -61.38345 -9.030784 -56.838127
        -56.08791 -9.809761 -62.315605 -49.33075 -10.273267 -65.04774
        -42.153107 -10.352857 -64.403854 -35.755905 -10.052671 -60.373592
        -31.140461 -9.447258 -53.54374 -28.860188 -8.65163 -44.84912
        -28.981504 -7.782291 -35.252068 -0.20424843 -0.1100359 0.1306858
        -0.10523796 -0.15533996 0.13437843 -0.030563354 -0.19050288 0.16423035
        0.020614624 -0.21717048 0.20638275 0.052467346 -0.23713529 0.25149536
        -9.145545 -0.31108305 3.5981367 -9.475953 -0.31065795 3.6811922
        -9.817812 -0.3102113 3.7640772 -10.171641 -0.30974168 3.846559
        -10.53803 -0.3092475 3.9283867 -10.917642 -0.30872697 4.009284
        -11.311234 -0.30817822 4.0889463 -11.719665 -0.30759922 4.167033
        -12.143912 -0.30698776 4.2431574 -12.585082 -0.30634144 4.316877
        -13.044428 -0.30565757 4.3876753 -13.523363 -0.30493343 4.45495
        -14.023478 -0.3041658 4.5179863 -14.546542 -0.30335146 4.5759363
        -15.094529 -0.30248663 4.6277905 -15.669612 -0.30156752 4.6723485
        -16.274168 -0.30058983 4.7081833 -16.910782 -0.29954895 4.7336125
        -17.582247 -0.29844007 4.7466617 -18.29154 -0.29725796 4.7450366
        -19.04184 -0.2959969 4.7260904 -19.83651 -0.2946513 4.686804
        -20.679113 -0.29321495 4.623762 -21.573435 -0.2916831 4.533124
        -22.523504 -0.29004648 4.4105926 -23.533697 -0.2883003 4.251359
        -24.608784 -0.28643832 4.0500093 -25.75404 -0.28445467 3.8003893
        -26.975327 -0.28234392 3.4954183 -28.279161 -0.28010085 3.1268415
        -29.67277 -0.27772042 2.6849601 -31.16412 -0.2751966 2.1583226
        -32.762016 -0.27252007 1.5334017 -34.476334 -0.26967382 0.7941619
        -36.318443 -0.26662856 -0.07859707 -38.301857 -0.2633285 -1.108455
        -40.442883 -0.2596775 -2.3254676 -42.76082 -0.2555166 -3.769627
        -45.276672 -0.25060034 -5.495946 -48.00871 -0.24457565 -7.581021
        -50.96261 -0.23697627 -10.129792 -54.113686 -0.22722596 -13.279337
        -57.380096 -0.21466559 -17.193718 -60.588734 -0.19848484 -22.041626
        -63.442863 -0.17765532 -27.947254 -65.50898 -0.15098779 -34.90943
        -66.25044 -0.11781332 -42.69679 -65.1364 -0.07945067 -50.752514
        -61.830574 -0.04050526 -58.173027 -56.406975 -0.008229166 -63.83121
        -49.47711 0.010415822 -66.66089 -42.112095 0.01169619 -66.00808
        -35.547752 -0.0041885674 -61.864838 -30.810911 -0.034831166 -54.84404
        -28.468199 -0.07504225 -45.919716 -28.577793 -0.11781824 -36.08895
        -0.2540474 -0.072065756 0.18385124 -0.14619827 -0.11643057 0.17038727
        -0.0631752 -0.15388444 0.18812561 -0.0048294067 -0.1844905 0.22202396
        0.032871246 -0.20896265 0.26161766 -9.139483 -0.24558315 3.595074
        -9.469613 -0.24194473 3.6781151 -9.811176 -0.23805757 3.7609935
        -10.16469 -0.23389529 3.8434772 -10.53074 -0.22942823 3.9253147
        -10.90999 -0.22462292 4.006231 -11.303192 -0.21944161 4.0859222
        -11.711204 -0.21384169 4.164048 -12.134995 -0.2077748 4.2402225
        -12.575673 -0.20118617 4.314004 -13.034482 -0.19401364 4.384878
        -13.512831 -0.1861865 4.4522424 -14.012303 -0.17762432 4.5153847
        -14.534663 -0.16823539 4.573461 -15.081872 -0.15791513 4.6254625
        -15.656095 -0.14654423 4.670193 -16.259697 -0.13398649 4.706233
        -16.895252 -0.12008609 4.7319026 -17.565535 -0.10466515 4.7452374
        -18.273506 -0.0875198 4.74395 -19.022326 -0.06841677 4.7254076
        -19.815332 -0.047087573 4.686603 -20.65606 -0.023222987 4.624136
        -21.54826 0.0035338448 4.5341873 -22.495924 0.03360275 4.412483
        -23.503374 0.06747279 4.254241 -24.575321 0.10572416 4.0540867
        -25.716967 0.1490502 3.8059106 -26.934076 0.19828735 3.5026894
        -28.23305 0.25445378 3.1362476 -29.620958 0.31880036 2.6969862
        -31.105577 0.39287883 2.1735892 -32.69547 0.47863325 1.552711
        -34.40018 0.5785295 0.8185661 -36.230648 0.6957336 -0.047703743
        -38.199806 0.8343607 -1.0691707 -40.323204 0.9998174 -2.2751584
        -42.619137 1.1992368 -3.7045465 -45.10733 1.4420084 -5.410676
        -47.804535 1.7403169 -7.4676166 -50.714836 2.1095278 -9.976598
        -53.812298 2.5680804 -13.069401 -57.014885 3.1363273 -16.903069
        -60.151688 3.833605 -21.637808 -62.932213 4.672555 -27.389254
        -64.93481 5.650036 -34.15059 -65.64069 6.7351117 -41.692688
        -64.540375 7.8577437 -49.474937 -61.315273 8.906254 -56.62729
        -56.04348 9.74305 -62.069927 -49.319206 10.24038 -64.78395
        -42.17679 10.323013 -64.143585 -35.809 9.995043 -60.137043
        -31.211498 9.335419 -53.34442 -28.937437 8.467527 -44.692158
        -29.056124 7.520896 -35.13544 -0.2969284 -0.05888176 0.25315475
        -0.18525696 -0.0957675 0.22206688 -0.09700394 -0.13047361 0.22566795
        -0.03310013 -0.16128373 0.24878407 0.009809494 -0.18755269 0.28044987
        -9.120876 -0.18094026 3.5845518 -9.450174 -0.1741298 3.6675324
        -9.7908535 -0.16684534 3.7503724 -10.143423 -0.15903565 3.8328416
        -10.508465 -0.1506432 3.9146905 -10.886634 -0.14160295 3.995645
        -11.278675 -0.13184148 4.0754037 -11.685435 -0.12127569 4.1536274
        -12.107875 -0.10981151 4.2299337 -12.547086 -0.09734218 4.3038826
        -13.004301 -0.08374631 4.374964 -13.480911 -0.06888594 4.442581
        -13.97848 -0.05260387 4.5060263 -14.498753 -0.034721006 4.564462
        -15.043663 -0.015032795 4.6168914 -15.615348 0.006694075 4.6621284
        -16.21614 0.030726235 4.698767 -16.848574 0.05736827 4.72515
        -17.515379 0.086968675 4.739332 -18.219473 0.1199263 4.7390547
        -18.96395 0.15669806 4.721719 -19.752083 0.1978092 4.6843576
        -20.587328 0.2438649 4.62362 -21.47334 0.29556504 4.535744
        -22.413998 0.35372746 4.4165277 -23.41348 0.41930917 4.2612753
        -24.476334 0.49344313 4.0647173 -25.607538 0.577482 3.8208804
        -26.8126 0.67305493 3.5229135 -28.097582 0.78214127 3.1628652
        -29.46914 0.9071674 2.731427 -30.934513 1.0511318 2.2176735
        -32.501575 1.217778 1.608772 -34.178986 1.4118259 0.8896431
        -35.976498 1.6392988 0.04240012 -37.90548 1.9079704 -0.95464134
        -39.97939 2.227966 -2.1287742 -42.213837 2.612536 -3.5158525
        -44.62515 3.0789561 -5.164667 -47.226097 3.649437 -7.142494
        -50.016666 4.351699 -9.540614 -52.96784 5.2185946 -12.476833
        -55.997627 6.2857704 -16.089825 -58.94166 7.5859823 -20.517996
        -61.526703 9.138543 -25.855555 -63.363136 10.93309 -32.08264
        -63.97947 12.909212 -38.9781 -62.921402 14.938839 -46.04487
        -59.915215 16.824413 -52.500076 -55.047867 18.327116 -57.384262
        -48.868034 19.227028 -59.79801 -42.315388 19.394318 -59.187057
        -36.47236 18.834812 -55.531513 -32.251305 17.68421 -49.32928
        -30.17416 16.15646 -41.388584 -30.328472 14.476259 -32.554596
        -0.32635117 -0.07113838 0.3273239 -0.21688652 -0.09528208 0.2815609
        -0.12763977 -0.1225996 0.27155685 -0.060836792 -0.14978886 0.28317356
        -0.014194489 -0.17484975 0.3057089 -9.09039 -0.11796847 3.5670407
        -9.4183235 -0.10806875 3.6499276 -9.757547 -0.09747377 3.7327116
        -10.108568 -0.086107865 3.8151655 -10.471951 -0.073885694 3.8970416
        -10.848343 -0.060711026 3.9780693 -11.238475 -0.046475112 4.0579495
        -11.643175 -0.031054914 4.136348 -12.063389 -0.014311078 4.212885
        -12.500187 0.0039144885 4.2871256 -12.954778 0.023801416 4.3585668
        -13.428528 0.04555387 4.426618 -13.922965 0.06940446 4.4905825
        -14.439799 0.095618226 4.549635 -14.980927 0.1244972 4.6027946
        -15.548432 0.15638639 4.648895 -16.1446 0.19167922 4.6865544
        -16.771896 0.23082526 4.7141466 -17.432987 0.27433798 4.729764
        -18.130701 0.32280442 4.7311964 -18.868042 0.37689674 4.7158985
        -19.648174 0.4373859 4.680971 -20.47442 0.505159 4.6231446
        -21.350288 0.5812406 4.5387535 -22.27947 0.6668229 4.4237103
        -23.265928 0.7632999 4.2734613 -24.313929 0.8723165 4.0829105
        -25.42812 0.9958302 3.8463044 -26.613586 1.1361903 3.5570693
        -27.875874 1.2962402 3.2076116 -29.220976 1.4794475 2.7890935