<?xml version="1.0"?>
<VTKFile type="StructuredGrid" version="0.1" byte_order="LittleEndian" header_type="UInt32" compressor="vtkZLibDataCompressor">
  <StructuredGrid WholeExtent="0 60 0 20 0 20">
  <Piece Extent="0 60 0 20 0 20">
    <PointData Vectors="B_total">
      <DataArray type="Float32" Name="B_total" NumberOfComponents="3" format="ascii" RangeMin="0" RangeMax="57372.38662975611">
        -8.604687 -0.8076496 3.3406818 -8.911425 -0.83124197 3.4234102
        -9.22808 -0.8566756 3.5066822 -9.555011 -0.88417494 3.5903218
        -9.892624 -0.91399276 3.674138 -10.241376 -0.9464135 3.7579195
        -10.601784 -0.9817575 3.8414345 -10.974437 -1.0203855 3.924424
        -11.359997 -1.0627038 4.006596 -11.759214 -1.1091698 4.087621
        -12.172936 -1.1602993 4.1671205 -12.602109 -1.2166728 4.244654
        -13.047787 -1.2789448 4.3197155 -13.511134 -1.3478521 4.3917074
        -13.99343 -1.4242234 4.459933 -14.496063 -1.508991 4.5235763
        -15.020518 -1.6032008 4.581684 -15.568374 -1.7080256 4.6331477
        -16.141277 -1.8247771 4.676689 -16.740927 -1.9549199 4.7108464
        -17.369036 -2.1000862 4.7339625 -18.027304 -2.2620912 4.7441835
        -18.717392 -2.4429514 4.7394567 -19.440876 -2.6449075 4.7175403
        -20.199224 -2.8704479 4.6760063 -20.993769 -3.1223447 4.612254
        -21.82566 -3.4036896 4.5235 -22.695837 -3.717945 4.406785
        -23.604954 -4.069001 4.258951 -24.553282 -4.4612327 4.0766325
        -25.540562 -4.8995643 3.8562465 -26.565798 -5.389528 3.5940413
        -27.627043 -5.937311 3.2861767 -28.721169 -6.549803 2.9289048
        -29.843672 -7.2346234 2.5188003 -30.988564 -8.0001545 2.0530167
        -32.148357 -8.855549 1.5294948 -33.31405 -9.810683 0.947037
        -34.475 -10.875976 0.30518973 -35.61851 -12.061904 -0.39603996
        -36.72893 -13.378019 -1.1564465 -37.786255 -14.831182 -1.9755133
        -38.76455 -16.422785 -2.8514457 -39.631134 -18.144993 -3.7789178
        -40.347603 -19.9764 -4.745543 -40.87418 -21.87809 -5.727706
        -41.177883 -23.791668 -6.687126 -41.24388 -25.64113 -7.569886
        -41.08746 -27.339836 -8.309434 -40.76278 -28.802624 -8.83396
        -40.36448 -29.961246 -9.076942 -37.792965 -29.083118 -8.464195
        -0.07453656 -0.37504578 0.39389086 -0.06264174 -0.38870144 0.3827958
        -0.04672408 -0.39863205 0.37604952 -0.028834581 -0.40412998 0.3740449
        -0.010978222 -0.40520954 0.37649012 0.0052518845 -0.4024477 0.38260293
        0.018854618 -0.3967495 0.39133668 0.029382706 -0.38909245 0.40164375
        0.03684616 -0.3803692 0.41259837 -8.669414 -0.7743853 3.3860478
        -8.979765 -0.7968476 3.4688327 -9.300326 -0.82105386 3.5520363
        -9.631491 -0.8472109 3.6354742 -9.973697 -0.8755512 3.718945
        -10.32744 -0.9063365 3.802229 -10.693284 -0.93986166 3.8850827
        -11.071866 -0.9764589 3.9672365 -11.463907 -1.0165029 4.0483856
        -11.870225 -1.0604161 4.128184 -12.291739 -1.1086757 4.206234
        -12.729481 -1.1618202 4.282075 -13.184602 -1.2204583 4.3551683
        -13.658379 -1.2852769 4.4248815 -14.152213 -1.3570522 4.490473
        -14.667632 -1.4366598 4.5510683 -15.206281 -1.5250868 4.605642
        -15.76991 -1.6234446 4.6529975 -16.360363 -1.7329824 4.6917496
        -16.979548 -1.8551034 4.7203035 -17.629408 -1.9913793 4.7368484
        -18.311907 -2.14357 4.7393494 -19.028976 -2.3136454 4.7255435
        -19.78251 -2.50381 4.692949 -20.574312 -2.7165358 4.638863
        -21.406101 -2.9546032 4.560375 -22.279465 -3.221147 4.454344
        -23.195837 -3.5197234 4.3173995 -24.156439 -3.854379 4.1459002
        -25.162184 -4.229735 3.9359016 -26.213518 -4.6510773 3.6831326
        -27.310219 -5.1244497 3.383009 -28.451141 -5.656753 3.0307183
        -29.633968 -6.2558427 2.6213746 -30.855003 -6.9306407 2.1502528
        -32.10904 -7.691258 1.6130205 -33.389297 -8.549122 1.0059043
        -34.68735 -9.517054 0.3256576 -35.99279 -10.609211 -0.43071032
        -37.292435 -11.84067 -1.2663927 -38.56871 -13.226366 -2.1851726
        -39.797245 -14.778982 -3.1911776 -40.944046 -16.505438 -4.2872744
        -41.96341 -18.401758 -5.471497 -42.798576 -20.446812 -6.7313604
        -43.387142 -22.596085 -8.037052 -43.672462 -24.777649 -9.33554
        -43.62052 -26.893192 -10.548556 -43.238556 -28.826462 -11.576982
        -42.58963 -30.45961 -12.312689 -41.796356 -31.694962 -12.65591
        -41.02981 -32.476448 -12.533422 -31.818443 -25.844664 -9.279154
        -0.07626641 -0.3851986 0.3430767 -0.055654526 -0.39814758 0.3349805
        -0.032688618 -0.40559864 0.33369303 -0.010163307 -0.4075756 0.3386078
        0.009829521 -0.404891 0.34839106 0.026069641 -0.39871788 0.36143827
        0.038151264 -0.39031982 0.3762064 0.046265602 -0.38081074 0.39141297
        -8.737696 -0.73854 3.4322507 -9.05164 -0.7595021 3.5151126
        -9.376068 -0.78207856 3.5982702 -9.711402 -0.80645615 3.6815288
        -10.05811 -0.8328452 3.764679 -10.416726 -0.8614823 3.8474905
        -10.787854 -0.89263415 3.9297104 -11.172177 -0.9266015 4.011056
        -11.570471 -0.96372396 4.09121 -11.983613 -1.0043849 4.1698103
        -12.412595 -1.049018 4.2464404 -12.858526 -1.0981143 4.320616
        -13.322651 -1.1522295 4.3917685 -13.80635 -1.211993 4.4592295
        -14.311142 -1.2781179 4.52221 -14.838688 -1.3514112 4.579778
        -15.390784 -1.4327865 4.6308355 -15.96935 -1.5232762 4.674096
        -16.576414 -1.6240462 4.7080626 -17.214096 -1.7364117 4.7310114
        -17.884567 -1.8618548 4.740973 -18.59005 -2.0020442 4.735726
        -19.332758 -2.1588597 4.7127934 -20.1149 -2.334421 4.669444
        -20.938644 -2.5311248 4.602696 -21.806107 -2.7516878 4.509303
        -22.71935 -2.9992094 4.3857565 -23.68036 -3.2772408 4.228242
        -24.690998 -3.5898747 4.0325947 -25.752905 -3.9418464 3.7942352
        -26.867373 -4.338653 3.5081234 -28.035122 -4.7866826 3.168745
        -29.256048 -5.29336 2.7701592 -30.528961 -5.8673162 2.30615
        -31.851387 -6.518585 1.7704104 -33.219437 -7.2588477 1.1567376
        -34.62774 -8.101707 0.45908856 -36.069275 -9.062948 -0.32862663
        -37.53487 -10.160672 -1.2130728 -39.01187 -11.41505 -2.202241
        -40.481686 -12.847302 -3.3060675 -41.915947 -14.477379 -4.5360985
        -43.27182 -16.319704 -5.9031305 -44.488083 -18.376646 -7.4118075
        -45.484623 -20.629904 -9.051872 -46.16871 -23.03123 -10.787336
        -46.450394 -25.495426 -12.546581 -46.26676 -27.89954 -14.218111
        -45.610367 -30.092503 -15.656481 -44.55281 -31.916767 -16.700748
        -43.252293 -33.238594 -17.202675 -41.938145 -33.978714 -17.056732
        -40.87366 -34.13242 -16.221033 -11.603685 -9.92974 -4.0014343
        -0.06773472 -0.38750648 0.28662777 -0.038505077 -0.39824295 0.28614712
        -0.010275364 -0.40228844 0.29420376 0.014225006 -0.40068436 0.30867672
        0.03354454 -0.3949442 0.32715082 0.04736519 -0.38662338 0.34743118
        0.0561347 -0.37705135 0.3677945 -8.8068905 -0.69913375 3.4780369
        -9.124303 -0.71824294 3.5610206 -9.452451 -0.7388095 3.6441834
        -9.791778 -0.76099896 3.7273238 -10.142785 -0.7849975 3.8102224
        -10.506035 -0.811015 3.8926404 -10.882172 -0.8392878 3.9743145
        -11.27192 -0.8700828 4.054952 -11.676104 -0.9037014 4.134222
        -12.095657 -0.940485 4.2117476 -12.531634 -0.9808199 4.287094
        -12.985222 -1.0251442 4.359754 -13.457746 -1.0739554 4.429132
        -13.950684 -1.1278175 4.494524 -14.465663 -1.1873721 4.555095
        -15.004471 -1.2533466 4.609858 -15.569044 -1.3265675 4.6576443
        -16.161459 -1.4079726 4.697082 -16.783922 -1.4986241 4.7265687
        -17.438753 -1.5997258 4.7442513 -18.128345 -1.7126406 4.748007
        -18.855167 -1.8389113 4.7354355 -19.621714 -1.9802856 4.7038484
        -20.430506 -2.1387472 4.6502705 -21.284073 -2.3165562 4.571438
        -22.184952 -2.5162938 4.463778 -23.135693 -2.7409327 4.3233995
        -24.13886 -2.9939134 4.1460385 -25.196995 -3.2792435 3.9269843
        -26.31255 -3.6016154 3.660994 -27.48776 -3.9665487 3.3422084
        -28.724428 -4.3805504 2.9641018 -30.023693 -4.8513093 2.5195036
        -31.385794 -5.387928 2.0006928 -32.80988 -6.001219 1.3995385
        -34.293926 -6.7040677 0.70758736 -35.834724 -7.5118885 -0.08404064
        -37.427635 -8.443099 -0.9851339 -39.065884 -9.519509 -2.007308
        -40.738716 -10.766357 -3.1652179 -42.427864 -12.211485 -4.4775825
        -44.101894 -13.882979 -5.966879 -45.709057 -15.804413 -7.656159
        -47.17057 -17.986923 -9.561331 -48.378006 -20.418106 -11.678286
        -49.19991 -23.049137 -13.966127 -49.501476 -25.783518 -16.331032
        -49.17856 -28.473412 -18.617714 -48.199905 -30.929754 -20.61668
        -46.644215 -32.94967 -22.091908 -44.71442 -34.357544 -22.8257
        -42.716335 -35.047775 -22.667374 -41.003468 -35.0126 -21.566845
        -39.906155 -34.343876 -19.57938 -0.084709644 -0.3618126 0.23380375
        -0.047911644 -0.3778553 0.23366642 -0.012742043 -0.38586998 0.24513817
        0.01717186 -0.3870573 0.2650137 0.040151596 -0.38325596 0.28980017
        0.05602455 -0.37634468 0.31643724 0.06557274 -0.36787176 0.34267807
        -8.874142 -0.6555554 3.5219483 -9.194795 -0.6724902 3.6051047
        -9.526406 -0.69070363 3.688337 -9.869442 -0.71033865 3.7714362
        -10.224429 -0.7315565 3.8541756 -10.591959 -0.75453836 3.936308
        -10.972708 -0.7794889 4.017561 -11.367438 -0.80663925 4.097632
        -11.777019 -0.8362509 4.1761794 -12.202434 -0.8686199 4.2528124
        -12.644794 -0.9040823 4.3270793 -13.105352 -0.9430195 4.3984537
        -13.585511 -0.98586524 4.4663134 -14.086834 -1.0331129 4.5299225
        -14.611049 -1.085324 4.5884056 -15.160055 -1.1431382 4.640723
        -15.735916 -1.2072829 4.685644 -16.340855 -1.2785861 4.7217155
        -16.977242 -1.35799 4.747238 -17.647575 -1.4465649 4.76024
        -18.354464 -1.5455283 4.7584586 -19.1006 -1.656264 4.739324
        -19.888748 -1.7803483 4.699952 -20.721733 -1.9195807 4.637137
        -21.602432 -2.076024 4.5473485 -22.533794 -2.2520514 4.4266996
        -23.518862 -2.4504182 4.270934 -24.560774 -2.6743414 4.075343
        -25.662779 -2.9276028 3.834677 -26.828165 -3.2146795 3.5430264
        -28.060162 -3.540896 3.1937008 -29.361757 -3.9126117 2.7791378
        -30.735483 -4.3374505 2.2908726 -32.18322 -4.8245893 1.719579
        -33.706093 -5.385131 1.0551194 -35.304455 -6.032597 0.28648877
        -36.977936 -6.7835336 -0.598536 -38.725246 -7.6582236 -1.6142502
        -40.543262 -8.681368 -2.7784734 -42.424686 -9.882468 -4.1144485
        -44.353233 -11.295353 -5.652508 -46.29597 -12.956042 -7.430021
        -48.192997 -14.897795 -9.487431 -49.946842 -17.142147 -11.857885
        -51.41672 -19.685543 -14.548999 -52.424084 -22.482544 -17.518085
        -52.77693 -25.429733 -20.646515 -52.315594 -28.357788 -23.723988
        -50.97336 -31.040863 -26.455952 -48.83317 -33.229637 -28.503548
        -46.15254 -34.704494 -29.552784 -43.335007 -35.33241 -29.391373
        -40.84963 -35.104496 -27.961927 -39.127228 -34.136723 -25.366772
        -38.094612 -32.31463 -21.60615 -0.063230515 -0.34049034 0.18111229
        -0.019756317 -0.3550663 0.1953373 0.01672554 -0.36144638 0.22056007
        0.044178963 -0.36174583 0.25188065 0.0626297 -0.35809708 0.28520393
        0.073316574 -0.35230875 0.3175869 -8.936598 -0.6075891 3.5624478
        -9.260167 -0.6220685 3.6458192 -9.594888 -0.63763094 3.7291787
        -9.941245 -0.65439624 3.8123107 -10.299787 -0.67249936 3.8949826
        -10.67113 -0.6920923 3.9769402 -11.055982 -0.7133467 4.0579042
        -11.455135 -0.7364565 4.1375628 -11.869498 -0.7616415 4.215565
        -12.300097 -0.78915054 4.291509 -12.748095 -0.8192666 4.364929
        -13.214799 -0.8523113 4.43528 -13.70168 -0.8886511 4.501919
        -14.210379 -0.92870325 4.56408 -14.742706 -0.97294384 4.620855
        -15.300663 -1.0219159 4.671158 -15.886425 -1.0762388 4.713701
        -16.502342 -1.1366193 4.746963 -17.150932 -1.2038634 4.7691584
        -17.834852 -1.27889 4.778212 -18.556902 -1.3627477 4.7717347
        -19.319986 -1.4566334 4.747009 -20.127104 -1.561916 4.700975
        -20.981363 -1.680166 4.630221 -21.885971 -1.8131948 4.5309744
        -22.844257 -1.9630971 4.3990655 -23.859734 -2.1323237 4.2298956
        -24.936098 -2.323756 4.018345 -26.077278 -2.5408115 3.7586584
        -27.287392 -2.7875698 3.4442885 -28.570662 -3.068932 3.0677438
        -29.931278 -3.3908186 2.6204486 -31.373236 -3.760414 2.0926592
        -32.90019 -4.186493 1.4734236 -34.515453 -4.679846 0.7505231
        -36.2221 -5.2538533 -0.08977747 -38.023155 -5.925221 -1.0633726
        -39.92145 -6.7148743 -2.1896675 -41.91864 -7.648912 -3.493701
        -44.01231 -8.759343 -5.008946 -46.190002 -10.084074 -6.779894
        -48.41922 -11.665215 -8.862597 -50.63346 -13.54435 -11.320137
        -52.716938 -15.753216 -14.209399 -54.493996 -18.29874 -17.556616
        -55.7325 -21.142994 -21.32222 -56.171974 -24.1823 -25.362312
        -55.582726 -27.234276 -29.401585 -53.849754 -30.045101 -33.03878
        -51.05579 -32.32666 -35.80177 -47.521946 -33.820896 -37.249714
        -43.771034 -34.371155 -37.090412 -40.413395 -33.969254 -35.260876
        -37.999435 -32.7552 -31.931854 -36.902225 -30.97082 -27.436394
        -0.0874033 -0.2838936 0.13646889 -0.034075737 -0.30808544 0.15108109
        0.010349274 -0.32251167 0.1801939 0.043390274 -0.3294382 0.21716595
        0.065291405 -0.33126926 0.25654793 0.07778835 -0.33001184 0.29462814
        -8.991619 -0.5553897 3.5980418 -9.317693 -0.5671782 3.681648
        -9.655079 -0.5798417 3.7651715 -10.004278 -0.59347624 3.8483915
        -10.365856 -0.6081901 3.93107 -10.740456 -0.6241052 4.012948
        -11.128798 -0.64135945 4.0937395 -11.531713 -0.6601086 4.173127
        -11.950137 -0.6805291 4.250751 -12.385132 -0.7028217 4.3262
        -12.837901 -0.727214 4.398998 -13.309806 -0.7539655 4.468584
        -13.802366 -0.7833721 4.534297 -14.317287 -0.8157713 4.5953503
        -14.856459 -0.85154873 4.650803 -15.421958 -0.8911449 4.6995344
        -16.016058 -0.9350632 4.7402096 -16.641218 -0.98387927 4.771249
        -17.300077 -1.038251 4.790796 -17.995438 -1.0989305 4.7966857
        -18.73025 -1.1667786 4.7864285 -19.507605 -1.2427803 4.757179
        -20.330715 -1.3280672 4.705728 -21.202929 -1.4239424 4.62849
        -22.127748 -1.5319165 4.5214863 -23.108845 -1.6537441 4.3802996
        -24.150146 -1.7914912 4.2000346 -25.255865 -1.9476016 3.9752107
        -26.430546 -2.1249933 3.699617 -27.679073 -2.3271766 3.3661392
        -29.006607 -2.5584028 2.9665565 -30.418486 -2.8238544 2.4913619
        -31.920116 -3.1298892 1.9296196 -33.516922 -3.484364 1.2688365
        -35.21444 -3.8970733 0.4947753 -37.01861 -4.380347 -0.40900517
        -38.936073 -4.949834 -1.4621575 -40.97424 -5.625494 -2.6894116
        -43.1402 -6.4327064 -4.123528 -45.4375 -7.4032946 -5.809127
        -47.859 -8.575937 -7.806484 -50.37462 -9.9950695 -10.192991
        -52.913383 -11.706791 -13.058411 -55.34295 -13.750032 -16.488987
        -57.452965 -16.141294 -20.536179 -58.95485 -18.853062 -25.169645
        -59.512367 -21.789557 -30.222443 -58.814747 -24.76944 -35.348408
        -56.68729 -27.529783 -40.022503 -53.207066 -29.764248 -43.612595
        -48.764645 -31.194296 -45.52335 -44.018734 -31.650665 -45.365887
        -39.740925 -31.127583 -43.074654 -36.614487 -29.781105 -38.909958
        -35.079662 -27.873848 -33.34895 -22.51941 -16.444595 -17.111923
        -0.05860138 -0.24608994 0.12064362 -0.004655838 -0.27115536 0.15023804
        0.03540325 -0.287138 0.19034767 0.061992645 -0.29656458 0.23393154
        0.077319145 -0.3016014 0.27630043 -9.036927 -0.49942935 3.6273863
        -9.365024 -0.5083388 3.7112193 -9.704558 -0.5179063 3.794915
        -10.056046 -0.52820396 3.8782496 -10.420067 -0.5393127 3.960981
        -10.797278 -0.5513241 4.0428457 -11.188425 -0.5643415 4.1235538
        -11.594353 -0.57848173 4.2027826 -12.016025 -0.5938776 4.280166
        -12.454534 -0.61067975 4.3552866 -12.911117 -0.62905943 4.427658
        -13.387168 -0.64921236 4.4967103 -13.884257 -0.6713613 4.561767
        -14.404139 -0.69576126 4.622023 -14.948757 -0.7227035 4.6765156
        -15.520258 -0.7525214 4.7240944 -16.12099 -0.78559667 4.763388
        -16.753502 -0.8223661 4.7927713 -17.420525 -0.8633301 4.8103323
        -18.124973 -0.9090619 4.813839 -18.869932 -0.9602188 4.800715
        -19.658638 -1.0175555 4.7680182 -20.494473 -1.0819408 4.7124224
        -21.380995 -1.1543809 4.630204 -22.321928 -1.2360396 4.517209
        -23.321249 -1.3282845 4.3688316 -24.383224 -1.4327258 4.179931
        -25.512503 -1.5512811 3.944728 -26.714157 -1.6862507 3.6566372
        -27.993725 -1.8404198 3.3080683 -29.357172 -2.0171828 2.8901856
        -30.810848 -2.2207088 2.3926907 -32.361416 -2.4561543 1.8036193
        -34.0159 -2.7299523 1.1091299 -35.781906 -3.0502086 0.2931881
        -37.668034 -3.4272451 -0.66311383 -39.684433 -3.8743362 -1.7829025
        -41.842957 -4.408642 -3.095962 -44.156204 -5.0523195 -4.6424794
        -46.63396 -5.833629 -6.478011 -49.275154 -6.787619 -8.678596
        -52.053406 -7.955586 -11.343385 -54.895615 -9.381968 -14.590046
        -57.655777 -11.106812 -18.536701 -60.092293 -13.152057 -23.264143
        -61.862587 -15.50096 -28.756462 -62.554962 -18.073858 -34.828438
        -61.774376 -20.708986 -41.064274 -59.280983 -23.163382 -46.80993
        -55.14139 -25.14755 -51.26114 -49.81517 -26.394878 -53.653637
        -44.101326 -26.743309 -53.493523 -38.938026 -26.190166 -50.71606
        -35.14234 -24.889593 -45.684967 -33.216362 -23.095068 -39.037872
        -33.293938 -21.080143 -31.469526 -0.095243454 -0.17466736 0.11261749
        -0.030319214 -0.21155548 0.13726997 0.018316269 -0.23798847 0.17629337
        0.051042557 -0.25636005 0.22088242 0.07051945 -0.26891327 0.2651043
        -9.070713 -0.44043165 3.6493716 -9.400292 -0.44632164 3.7333937
        -9.741403 -0.45264685 3.817241 -10.094567 -0.45945492 3.9006867
        -10.460377 -0.46679956 3.9834862 -10.839499 -0.47474134 4.065373
        -11.232691 -0.48334873 4.1460543 -11.64082 -0.49269944 4.2252035
        -12.064861 -0.5028814 4.3024507 -12.505932 -0.51399493 4.377373
        -12.965291 -0.5261539 4.449479 -13.444363 -0.5394885 4.5181894
        -13.944746 -0.5541473 4.582819 -14.468232 -0.57030016 4.6425486
        -15.016808 -0.5881418 4.6964006 -15.592668 -0.607895 4.743203
        -16.198215 -0.6298152 4.7815595 -16.836058 -0.6541954 4.8098116
        -17.509 -0.6813712 4.8260055 -18.220047 -0.7117282 4.827863
        -18.972368 -0.7457091 4.812747 -19.769306 -0.7838234 4.777643
        -20.614382 -0.8266589 4.719141 -21.511293 -0.87489915 4.6334157
        -22.463945 -0.92933464 4.516191 -23.476532 -0.99089944 4.3627157
        -24.553583 -1.060697 4.1676707 -25.700071 -1.140046 3.9250555
        -26.921473 -1.2305353 3.6280046 -28.223824 -1.3340963 3.2685652
        -29.613716 -1.4530962 2.8374407 -31.098286 -1.5904561 2.323728
        -32.685184 -1.7498115 1.7146666 -34.382713 -1.9357274 0.99536633
        -36.200138 -2.153998 0.14836884 -38.148273 -2.4120622 -0.8472059
        -40.24014 -2.719564 -2.0173314 -42.49138 -3.0890937 -3.3959546
        -44.919315 -3.537068 -5.0294976 -47.539238 -4.0846715 -6.9828005
        -50.355698 -4.7585516 -9.345476 -53.346375 -5.5906687 -12.235725
        -56.437614 -6.616276 -15.796142 -59.473587 -7.868474 -20.174074
        -62.187817 -9.367781 -25.478443 -64.19289 -11.105912 -31.709576
        -65.01197 -13.025845 -38.66989 -64.17512 -15.005428 -45.884476
        -61.382214 -16.856478 -52.583725 -56.687576 -18.351372 -57.80532
        -50.610382 -19.278606 -60.627823 -44.07463 -19.509638 -60.45986
        -38.166805 -19.044373 -57.240112 -33.82056 -18.008701 -51.432465
        -31.587555 -16.605814 -43.825756 -31.584648 -15.050304 -35.261116
        -0.14359093 -0.10393429 0.13323402 -0.0669117 -0.1512165 0.14627838
        -0.008508682 -0.18751383 0.17882156 0.031736374 -0.21474266 0.22015858
        0.056710243 -0.23493528 0.26301003 -9.091669 -0.37930486 3.6631763
        -9.422157 -0.38208222 3.747327 -9.764232 -0.38506827 3.8312805
        -10.11842 -0.38828608 3.9148083 -10.48532 -0.39176193 3.9976647
        -10.865607 -0.39552522 4.0795813 -11.260049 -0.3996095 4.160263
        -11.669516 -0.40405273 4.2393823 -12.095001 -0.40889794 4.3165665
        -12.53763 -0.4141943 4.3913894 -12.998677 -0.41999766 4.463355
        -13.479584 -0.4263721 4.531881 -13.981968 -0.4333908 4.596275
        -14.507641 -0.4411374 4.655711 -15.058619 -0.4497081 4.7092013
        -15.637121 -0.459213 4.755562 -16.245586 -0.46977857 4.793379
        -16.88666 -0.48155016 4.8209753 -17.563192 -0.49469456 4.8363748
        -18.27823 -0.5094038 4.8372674 -19.035007 -0.52589846 4.8209815
        -19.836935 -0.54443324 4.784459 -20.687603 -0.5653027 4.7242374
        -21.590805 -0.58885103 4.63643 -22.55056 -0.61547464 4.516689
        -23.571188 -0.6456461 4.3601694 -24.657385 -0.6799248 4.161447
        -25.814325 -0.71898097 3.9143825 -27.047737 -0.763625 3.6119354
        -28.363964 -0.81484634 3.2459328 -29.769999 -0.8738597 2.8067849
        -31.273458 -0.942171 2.2832096 -32.882637 -1.0216594 1.6619465
        -34.60665 -1.1146921 0.92743695 -36.45584 -1.2242832 0.06131029
        -38.442448 -1.354312 -0.95859456 -40.58141 -1.5098217 -2.160098
        -42.890854 -1.6974107 -3.5799043 -45.391273 -1.9257144 -5.268569
        -48.10173 -2.2059262 -7.297145 -51.03069 -2.5522165 -9.7644205
        -54.15889 -2.98175 -12.801578 -57.412807 -3.5137153 -16.56842
        -60.63077 -4.1664896 -21.232782 -63.530434 -4.9519672 -26.92384
        -65.694786 -5.86656 -33.65448 -66.603096 -6.8801165 -41.22028
        -65.73384 -7.92698 -49.106598 -62.744553 -8.905736 -56.4638
        -57.679977 -9.693728 -62.218212 -51.099846 -10.176928 -65.336754
        -44.01448 -10.286268 -65.15911 -37.612568 -10.02284 -61.627693
        -32.90682 -9.45688 -55.279613 -30.48052 -8.700446 -47.012123
        -30.435997 -7.8692617 -37.769077 -0.19983482 -0.046654224 0.18341064
        -0.11208344 -0.09967756 0.1786747 -0.04368782 -0.14275241 0.19930267
        0.004804611 -0.17683983 0.23295212 0.03627205 -0.20340943 0.27093124
        -9.099018 -0.3170773 3.6683 -9.429815 -0.31669548 3.752502
        -9.772217 -0.31629398 3.8364995 -10.126753 -0.31587148 3.9200637
        -10.494024 -0.31542644 4.0029483 -10.874705 -0.31495738 4.084884
        -11.269569 -0.31446245 4.165576 -11.67949 -0.31393993 4.244694
        -12.105463 -0.31338766 4.3218665 -12.548617 -0.3128035 4.3966656
        -13.010233 -0.31218514 4.468594 -13.491756 -0.3115299 4.5370674
        -13.994813 -0.310835 4.6013923 -14.521222 -0.31009743 4.660739
        -15.073004 -0.3093139 4.714116 -15.652392 -0.30848098 4.7603374
        -16.261833 -0.30759472 4.7979817 -16.903986 -0.30665115 4.8253675
        -17.581715 -0.30564603 4.8405075 -18.298082 -0.3045747 4.8410826
        -19.056341 -0.30343235 4.8244085 -19.859926 -0.30221418 4.787413
        -20.71245 -0.30091485 4.726616 -21.617739 -0.29953158 4.638109
        -22.579844 -0.2980558 4.5175185 -23.603132 -0.29648477 4.3599715
        -24.692352 -0.29481444 4.160003 -25.852741 -0.29304203 3.911427
        -27.09011 -0.2911654 3.6071455 -28.410912 -0.28918412 3.238906
        -29.822258 -0.28709918 2.79702 -31.331932 -0.2849116 2.2700753
        -32.948437 -0.28262168 1.6446401 -34.681152 -0.2802246 0.90492713
        -36.54078 -0.27770278 0.032256365 -38.54002 -0.27501392 -0.9959731
        -40.69445 -0.27206978 -2.2082071 -43.023026 -0.2687055 -3.642084
        -45.54726 -0.26464042 -5.3495607 -48.287468 -0.25944155 -7.4037914
        -51.253384 -0.2524951 -9.90664 -54.426716 -0.24301746 -12.993662
        -57.73395 -0.23009628 -16.83041 -61.01145 -0.21269569 -21.59154
        -63.971535 -0.18958388 -27.412865 -66.18741 -0.15927307 -34.311264
        -67.12383 -0.12048346 -42.07969 -66.242325 -0.07367951 -50.18983
        -63.186707 -0.023032993 -57.765087 -57.99906 0.02331072 -63.694756
        -51.25293 0.05614376 -66.90878 -43.98731 0.06920618 -66.7244
        -37.42435 0.061196744 -63.08598 -32.602146 0.034880757 -56.555405
        -30.113966 -0.005148083 -48.066277 -30.057453 -0.0519042 -38.596954
        -0.25689507 -0.014357299 0.25727463 -0.16077805 -0.065908805 0.2311573
        -0.08373451 -0.11050105 0.23595047 -0.027370453 -0.14772649 0.25829887
        0.010810852 -0.17806815 0.28836823 -9.092499 -0.2548364 3.664573
        -9.422997 -0.2512951 3.7487445 -9.765084 -0.24750574 3.8327186
        -10.119284 -0.2434425 3.9162679 -10.486196 -0.23907633 3.9991455
        -10.866493 -0.23437451 4.0810833 -11.260945 -0.2293001 4.1617866
        -11.670424 -0.22381149 4.2409267 -12.095918 -0.21786146 4.3181314
        -12.538556 -0.21139657 4.3929744 -12.999612 -0.20435612 4.46496
        -13.480524 -0.19667096 4.533505 -13.982914 -0.18826239 4.597917
        -14.508591 -0.17904058 4.6573696 -15.059568 -0.16890287 4.7108746
        -15.638069 -0.15773216 4.7572465 -16.24653 -0.14539436 4.7950745
        -16.88759 -0.13173604 4.8226776 -17.564108 -0.11658189 4.8380804
        -18.279125 -0.099730976 4.838971 -19.03587 -0.08095286 4.822677
        -19.837753 -0.05998313 4.7861395 -20.688366 -0.036517303 4.725896
        -21.5915 -0.01020503 4.6380553 -22.551163 0.019366562 4.518269
        -23.571676 0.052675676 4.3616924 -24.657728 0.090289004 4.162895
        -25.814486 0.13288277 3.9157364 -27.047663 0.18127097 3.6131732
        -28.363596 0.23644227 3.2470286 -29.769255 0.29960996 2.8077111
        -31.27224 0.37227526 2.2839327 -32.88081 0.4563152 1.6624357
        -34.60404 0.5541034 0.9276633 -36.45221 0.66868204 0.06125498
        -38.437477 0.80400693 -0.95892763 -40.574665 0.96528214 -2.160656
        -42.88173 1.1594111 -3.5805464 -45.37892 1.395544 -5.268984
        -48.084972 1.6856729 -7.29673 -51.00793 2.0450904 -9.762068
        -54.12803 2.492375 -12.795356 -57.371326 3.0483193 -16.555134
        -60.57601 3.7330818 -21.20741 -63.4603 4.5606503 -26.879051
        -65.60889 5.5299864 -33.580524 -66.50432 6.6132126 -41.10598
        -65.62974 7.7439566 -48.941917 -62.6476 8.813567 -56.2442
        -57.60549 9.685097 -61.94907 -51.06134 10.228194 -65.03494
        -44.01832 10.362503 -64.84943 -37.655403 10.086408 -61.335762
        -32.977333 9.474408 -55.024582 -30.564573 8.646798 -46.803448
        -30.521952 7.731765 -37.607517 -0.3060074 -0.013183594 0.3431549
        -0.20622253 -0.055426598 0.29613876 -0.12364769 -0.09538269 0.28395653
        -0.06116104 -0.1310885 0.29316235 -0.01709938 -0.1617701 0.3134222
        -9.072369 -0.1936697 3.6521642 -9.401972 -0.18701477 3.736228
        -9.743105 -0.17988522 3.8201172 -10.096293 -0.17223077 3.9036052
        -10.462125 -0.16399477 3.9864473 -10.841268 -0.15511352 4.0683765
        -11.234483 -0.14551502 4.1491 -11.642632 -0.13511798 4.228291
        -12.066693 -0.12383029 4.30558 -12.507782 -0.11154744 4.3805437
        -12.967156 -0.09815072 4.4526887 -13.446241 -0.08350488 4.5214376
        -13.946635 -0.067455724 4.5861025 -14.470128 -0.049827352 4.6458654
        -15.018705 -0.030418748 4.699747 -15.594561 -0.009000052 4.7465744
        -16.200094 0.014691627 4.784951 -16.837917 0.040957093 4.813217
        -17.51083 0.070140816 4.829418 -18.221828 0.10263697 4.8312716
        -18.974087 0.13889766 4.8161416 -19.770945 0.17944202 4.78101
        -20.61591 0.22486769 4.7224636 -21.51268 0.2758638 4.636674
        -22.465157 0.33323687 4.5193624 -23.477512 0.39792576 4.365773
        -24.554276 0.47104105 4.1705823 -25.700397 0.5539057 3.927782
        -26.921339 0.6481107 3.6305027 -28.223106 0.7555859 3.270787
        -29.612267 0.87869287 2.83933 -31.095896 1.0203449 2.3252215
        -32.6816 1.1841685 1.7157035 -34.377594 1.3747249 0.995891
        -36.19303 1.5978218 0.14834452 -38.138565 1.8609467 -0.8477745
        -40.227 2.1738627 -2.0183437 -42.47366 2.549388 -3.3971448
        -44.89542 3.0043378 -5.030284 -47.50698 3.5605068 -6.9820595
        -50.31212 4.245375 -9.341163 -53.287666 5.091902 -12.224296
        -56.359245 6.1363707 -15.771792 -59.370895 7.4129148 -20.127792
        -62.05725 8.943192 -25.397179 -64.03417 10.720438 -31.57624
        -64.83072 12.689228 -38.465103 -63.98519 14.727286 -45.591095
        -61.205956 16.642046 -52.19429 -56.551956 18.196613 -57.329292
        -50.539024 19.1685 -60.09418 -44.07875 19.421087 -59.911343
        -38.240875 18.951391 -56.72102 -33.945427 17.886927 -50.976612
        -31.738928 16.43597 -43.45055 -31.741156 14.821331 -34.968548
        -0.3395157 -0.041620255 0.42734337 -0.24192047 -0.068505764 0.36402512
        -0.15818596 -0.098499775 0.33675957 -0.09253502 -0.12829304 0.33317184
        -0.044407845 -0.15584469 0.34318733 -9.039408 -0.13460577 3.6315737
        -9.3675375 -0.12492974 3.7154686 -9.707108 -0.11455623 3.7992272
        -10.05863 -0.10341056 3.8826253 -10.422684 -0.09140878 3.9654202
        -10.799928 -0.07845624 4.047349 -11.191106 -0.06444625 4.128121
        -11.597065 -0.049258113 4.2074127 -12.018766 -0.03275518 4.2848587
        -12.457302 -0.014782483 4.3600407 -12.913908 0.0048361924 4.4324718
        -13.38998 0.026301313 4.5015807 -13.887085 0.049841337 4.566692
        -14.406974 0.075717 4.6269975 -14.951595 0.10422613 4.681535
        -15.523089 0.13570888 4.729153 -16.123804 0.17055422 4.768478
        -16.756283 0.2092069 4.7978835 -17.423258 0.25217557 4.815455
        -18.127638 0.3000421 4.8189583 -18.872505 0.35347265 4.8058147
        -19.661087 0.41323122 4.773079 -20.496761 0.48019612 4.7174196
        -21.383074 0.5553789 4.6351094 -22.323742 0.6399579 4.5219893
        -23.322725 0.7353046 4.373447 -24.384277 0.84303546 4.1843357
        -25.513018 0.96507025 3.9488657 -26.713997 1.1037097 3.6604466
        -27.992708 1.2617335 3.3114753 -29.35508 1.4425274 2.8931117