# vtk DataFile Version 3.0
T01 + IGRF magnetic field in GSW coordinates
ASCII
DATASET STRUCTURED_GRID
DIMENSIONS     61    21    21
POINTS    26901 float
     -50.000000     -10.000000     -10.000000
     -49.000000     -10.000000     -10.000000
     -48.000000     -10.000000     -10.000000
     -47.000000     -10.000000     -10.000000
     -46.000000     -10.000000     -10.000000
     -45.000000     -10.000000     -10.000000
     -44.000000     -10.000000     -10.000000
     -43.000000     -10.000000     -10.000000
     -42.000000     -10.000000     -10.000000
     -41.000000     -10.000000     -10.000000
     -40.000000     -10.000000     -10.000000
     -39.000000     -10.000000     -10.000000
     -38.000000     -10.000000     -10.000000
     -37.000000     -10.000000     -10.000000
     -36.000000     -10.000000     -10.000000
     -35.000000     -10.000000     -10.000000
     -34.000000     -10.000000     -10.000000
     -33.000000     -10.000000     -10.000000
     -32.000000     -10.000000     -10.000000
     -31.000000     -10.000000     -10.000000
     -30.000000     -10.000000     -10.000000
     -29.000000     -10.000000     -10.000000
     -28.000000     -10.000000     -10.000000
     -27.000000     -10.000000     -10.000000
     -26.000000     -10.000000     -10.000000
     -25.000000     -10.000000     -10.000000
     -24.000000     -10.000000     -10.000000
     -23.000000     -10.000000     -10.000000
     -22.000000     -10.000000     -10.000000
     -21.000000     -10.000000     -10.000000
     -20.000000     -10.000000     -10.000000
     -19.000000     -10.000000     -10.000000
     -18.000000     -10.000000     -10.000000
     -17.000000     -10.000000     -10.000000
     -16.000000     -10.000000     -10.000000
     -15.000000     -10.000000     -10.000000
     -14.000000     -10.000000     -10.000000
     -13.000000     -10.000000     -10.000000
     -12.000000     -10.000000     -10.000000
     -11.000000     -10.000000     -10.000000
     -10.000000     -10.000000     -10.000000
      -9.000000     -10.000000     -10.000000
      -8.000000     -10.000000     -10.000000
      -7.000000     -10.000000     -10.000000
      -6.000000     -10.000000     -10.000000
      -5.000000     -10.000000     -10.000000
      -4.000000     -10.000000     -10.000000
      -3.000000     -10.000000     -10.000000
      -2.000000     -10.000000     -10.000000
      -1.000000     -10.000000     -10.000000
       0.000000     -10.000000     -10.000000
       1.000000     -10.000000     -10.000000
       2.000000     -10.000000     -10.000000
       3.000000     -10.000000     -10.000000
       4.000000     -10.000000     -10.000000
       5.000000     -10.000000     -10.000000
       6.000000     -10.000000     -10.000000
       7.000000     -10.000000     -10.000000
       8.000000     -10.000000     -10.000000
       9.000000     -10.000000     -10.000000
      10.000000     -10.000000     -10.000000
     -50.000000      -9.000000     -10.000000
     -49.000000      -9.000000     -10.000000
     -48.000000      -9.000000     -10.000000
     -47.000000      -9.000000     -10.000000
     -46.000000      -9.000000     -10.000000
     -45.000000      -9.000000     -10.000000
     -44.000000      -9.000000     -10.000000
     -43.000000      -9.000000     -10.000000
     -42.000000      -9.000000     -10.000000
     -41.000000      -9.000000     -10.000000
     -40.000000      -9.000000     -10.000000
     -39.000000      -9.000000     -10.000000
     -38.000000      -9.000000     -10.000000
     -37.000000      -9.000000     -10.000000
     -36.000000      -9.000000     -10.000000
     -35.000000      -9.000000     -10.000000
     -34.000000      -9.000000     -10.000000
     -33.000000      -9.000000     -10.000000
     -32.000000      -9.000000     -10.000000
     -31.000000      -9.000000     -10.000000
     -30.000000      -9.000000     -10.000000
     -29.000000      -9.000000     -10.000000
     -28.000000      -9.000000     -10.000000
     -27.000000      -9.000000     -10.000000
     -26.000000      -9.000000     -10.000000
     -25.000000      -9.000000     -10.000000
     -24.000000      -9.000000     -10.000000
     -23.000000      -9.000000     -10.000000
     -22.000000      -9.000000     -10.000000
     -21.000000      -9.000000     -10.000000
     -20.000000      -9.000000     -10.000000
     -19.000000      -9.000000     -10.000000
     -18.000000      -9.000000     -10.000000
     -17.000000      -9.000000     -10.000000
     -16.000000      -9.000000     -10.000000
     -15.000000      -9.000000     -10.000000
     -14.000000      -9.000000     -10.000000
     -13.000000      -9.000000     -10.000000
     -12.000000      -9.000000     -10.000000
     -11.000000      -9.000000     -10.000000
     -10.000000      -9.000000     -10.000000
      -9.000000      -9.000000     -10.000000
      -8.000000      -9.000000     -10.000000
      -7.000000      -9.000000     -10.000000
      -6.000000      -9.000000     -10.000000
      -5.000000      -9.000000     -10.000000
      -4.000000      -9.000000     -10.000000
      -3.000000      -9.000000     -10.000000
      -2.000000      -9.000000     -10.000000
      -1.000000      -9.000000     -10.000000
       0.000000      -9.000000     -10.000000
       1.000000      -9.000000     -10.000000
       2.000000      -9.000000     -10.000000
       3.000000      -9.000000     -10.000000
       4.000000      -9.000000     -10.000000
       5.000000      -9.000000     -10.000000
       6.000000      -9.000000     -10.000000
       7.000000      -9.000000     -10.000000
       8.000000      -9.000000     -10.000000
       9.000000      -9.000000     -10.000000
      10.000000      -9.000000     -10.000000
     -50.000000      -8.000000     -10.000000
     -49.000000      -8.000000     -10.000000
     -48.000000      -8.000000     -10.000000
     -47.000000      -8.000000     -10.000000
     -46.000000      -8.000000     -10.000000
     -45.000000      -8.000000     -10.000000
     -44.000000      -8.000000     -10.000000
     -43.000000      -8.000000     -10.000000
     -42.000000      -8.000000     -10.000000
     -41.000000      -8.000000     -10.000000
     -40.000000      -8.000000     -10.000000
     -39.000000      -8.000000     -10.000000
     -38.000000      -8.000000     -10.000000
     -37.000000      -8.000000     -10.000000
     -36.000000      -8.000000     -10.000000
     -35.000000      -8.000000     -10.000000
     -34.000000      -8.000000     -10.000000
     -33.000000      -8.000000     -10.000000
     -32.000000      -8.000000     -10.000000
     -31.000000      -8.000000     -10.000000
     -30.000000      -8.000000     -10.000000
     -29.000000      -8.000000     -10.000000
     -28.000000      -8.000000     -10.000000
     -27.000000      -8.000000     -10.000000
     -26.000000      -8.000000     -10.000000
     -25.000000      -8.000000     -10.000000
     -24.000000      -8.000000     -10.000000
     -23.000000      -8.000000     -10.000000
     -22.000000      -8.000000     -10.000000
     -21.000000      -8.000000     -10.000000
     -20.000000      -8.000000     -10.000000
     -19.000000      -8.000000     -10.000000
     -18.000000      -8.000000     -10.000000
     -17.000000      -8.000000     -10.000000
     -16.000000      -8.000000     -10.000000
     -15.000000      -8.000000     -10.000000
     -14.000000      -8.000000     -10.000000
     -13.000000      -8.000000     -10.000000
     -12.000000      -8.000000     -10.000000
     -11.000000      -8.000000     -10.000000
     -10.000000      -8.000000     -10.000000
      -9.000000      -8.000000     -10.000000
      -8.000000      -8.000000     -10.000000
      -7.000000      -8.000000     -10.000000
      -6.000000      -8.000000     -10.000000
      -5.000000      -8.000000     -10.000000
      -4.000000      -8.000000     -10.000000
      -3.000000      -8.000000     -10.000000
      -2.000000      -8.000000     -10.000000
      -1.000000      -8.000000     -10.000000
       0.000000      -8.000000     -10.000000
       1.000000      -8.000000     -10.000000
       2.000000      -8.000000     -10.000000
       3.000000      -8.000000     -10.000000
       4.000000      -8.000000     -10.000000
       5.000000      -8.000000     -10.000000
       6.000000      -8.000000     -10.000000
       7.000000      -8.000000     -10.000000
       8.000000      -8.000000     -10.000000
       9.000000      -8.000000     -10.000000
      10.000000      -8.000000     -10.000000
     -50.000000      -7.000000     -10.000000
     -49.000000      -7.000000     -10.000000
     -48.000000      -7.000000     -10.000000
     -47.000000      -7.000000     -10.000000
     -46.000000      -7.000000     -10.000000
     -45.000000      -7.000000     -10.000000
     -44.000000      -7.000000     -10.000000
     -43.000000      -7.000000     -10.000000
     -42.000000      -7.000000     -10.000000
     -41.000000      -7.000000     -10.000000
     -40.000000      -7.000000     -10.000000
     -39.000000      -7.000000     -10.000000
     -38.000000      -7.000000     -10.000000
     -37.000000      -7.000000     -10.000000
     -36.000000      -7.000000     -10.000000
     -35.000000      -7.000000     -10.000000
     -34.000000      -7.000000     -10.000000
     -33.000000      -7.000000     -10.000000
     -32.000000      -7.000000     -10.000000
     -31.000000      -7.000000     -10.000000
     -30.000000      -7.000000     -10.000000
     -29.000000      -7.000000     -10.000000
     -28.000000      -7.000000     -10.000000
     -27.000000      -7.000000     -10.000000
     -26.000000      -7.000000     -10.000000
     -25.000000      -7.000000     -10.000000
[...]
POINT_DATA    26901
VECTORS B_total float
  -8.5068874E+00  -7.3054332E-01   3.3689914E+00
  -8.8123341E+00  -7.5227493E-01   3.4516025E+00
  -9.1278296E+00  -7.7587438E-01   3.5347266E+00
  -9.4537449E+00  -8.0156738E-01   3.6181965E+00
  -9.7904978E+00  -8.2960719E-01   3.7018309E+00
  -1.0138560E+01  -8.6027819E-01   3.7854323E+00
  -1.0498467E+01  -8.9389968E-01   3.8687854E+00
  -1.0870820E+01  -9.3083078E-01   3.9516492E+00
  -1.1256306E+01  -9.7147536E-01   4.0337558E+00
  -1.1655695E+01  -1.0162880E+00   4.1148000E+00
  -1.2069857E+01  -1.0657814E+00   4.1944337E+00
  -1.2499767E+01  -1.1205329E+00   4.2722507E+00
  -1.2946514E+01  -1.1811941E+00   4.3477793E+00
  -1.3411300E+01  -1.2484995E+00   4.4204640E+00
  -1.3895442E+01  -1.3232776E+00   4.4896498E+00
  -1.4400377E+01  -1.4064614E+00   4.5545654E+00
  -1.4927642E+01  -1.4991008E+00   4.6143031E+00
  -1.5478868E+01  -1.6023749E+00   4.6678009E+00
  -1.6055758E+01  -1.7176050E+00   4.7138219E+00
  -1.6660063E+01  -1.8462684E+00   4.7509475E+00
  -1.7293550E+01  -1.9900123E+00   4.7775574E+00
  -1.7957964E+01  -2.1506693E+00   4.7918320E+00
  -1.8654995E+01  -2.3302729E+00   4.7917504E+00
  -1.9386240E+01  -2.5310762E+00   4.7750983E+00
  -2.0153170E+01  -2.7555776E+00   4.7394781E+00
  -2.0957102E+01  -3.0065472E+00   4.6823230E+00
  -2.1799156E+01  -3.2870634E+00   4.6008840E+00
  -2.2680241E+01  -3.6005604E+00   4.4922476E+00
  -2.3600965E+01  -3.9508803E+00   4.3533063E+00
  -2.4561571E+01  -4.3423295E+00   4.1807380E+00
  -2.5561760E+01  -4.7797389E+00   3.9709945E+00
  -2.6600519E+01  -5.2685122E+00   3.7203267E+00
  -2.7675880E+01  -5.8146682E+00   3.4248607E+00
  -2.8784700E+01  -6.4248624E+00   3.0807555E+00
  -2.9922482E+01  -7.1064091E+00   2.6844287E+00
  -3.1083311E+01  -7.8672962E+00   2.2327919E+00
  -3.2259926E+01  -8.7162075E+00   1.7234299E+00
  -3.3443798E+01  -9.6625233E+00   1.1545991E+00
  -3.4625130E+01  -1.0716244E+01   5.2501488E-01
  -3.5792515E+01  -1.1887683E+01  -1.6661167E-01
  -3.6932022E+01  -1.3186723E+01  -9.2204189E-01
  -3.8025616E+01  -1.4621336E+01  -1.7436059E+00
  -3.9049221E+01  -1.6195080E+01  -2.6333966E+00
  -3.9971279E+01  -1.7903526E+01  -3.5910273E+00
  -4.0753132E+01  -1.9729855E+01  -4.6099019E+00
  -4.1352673E+01  -2.1640648E+01  -5.6725659E+00
  -4.1732132E+01  -2.3583298E+01  -6.7465148E+00
  -4.1869385E+01  -2.5487000E+01  -7.7822928E+00
  -4.1770535E+01  -2.7268822E+01  -8.7154846E+00
  -4.1479786E+01  -2.8845112E+01  -9.4732800E+00
  -4.1082531E+01  -3.0146664E+01  -9.9845734E+00
  -4.0698891E+01  -3.1134037E+01  -1.0190999E+01
  -6.7210674E-02  -3.3489513E-01   4.1508102E-01
  -6.2262878E-02  -3.4883881E-01   4.0407085E-01
  -5.2529216E-02  -3.6076450E-01   3.9608335E-01
  -3.9584160E-02  -3.6954689E-01   3.9187384E-01
  -2.5225163E-02  -3.7468147E-01   3.9155722E-01
  -1.1068344E-02  -3.7629128E-01   3.9471149E-01
   1.6832352E-03  -3.7489033E-01   4.0059137E-01
   1.2316227E-02  -3.7120724E-01   4.0833068E-01
   2.0555496E-02  -3.6599350E-01   4.1710496E-01
  -8.5721331E+00  -7.1206772E-01   3.4302692E+00
  -8.8814421E+00  -7.3307699E-01   3.5133338E+00
  -9.2011137E+00  -7.5585437E-01   3.5967793E+00
  -9.5315495E+00  -7.8060615E-01   3.6804283E+00
  -9.8732033E+00  -8.0756372E-01   3.7640884E+00
  -1.0226587E+01  -8.3698702E-01   3.8475513E+00
  -1.0592280E+01  -8.6916792E-01   3.9305880E+00
  -1.0970939E+01  -9.0443456E-01   4.0129461E+00
  -1.1363302E+01  -9.4315690E-01   4.0943418E+00
  -1.1770216E+01  -9.8575205E-01   4.1744523E+00
  -1.2192623E+01  -1.0326908E+00   4.2529082E+00
  -1.2631592E+01  -1.0845053E+00   4.3292785E+00
  -1.3088308E+01  -1.1417978E+00   4.4030590E+00
  -1.3564092E+01  -1.2052493E+00   4.4736528E+00
  -1.4060395E+01  -1.2756305E+00   4.5403557E+00
  -1.4578798E+01  -1.3538135E+00   4.6023302E+00
  -1.5121009E+01  -1.4407834E+00   4.6585894E+00
  -1.5688843E+01  -1.5376523E+00   4.7079692E+00
  -1.6284212E+01  -1.6456729E+00   4.7491136E+00
  -1.6909090E+01  -1.7662536E+00   4.7804532E+00
  -1.7565493E+01  -1.9009743E+00   4.8001938E+00
  -1.8255434E+01  -2.0516043E+00   4.8063087E+00
  -1.8980890E+01  -2.2201207E+00   4.7965412E+00
  -1.9743776E+01  -2.4087338E+00   4.7684083E+00
  -2.0545908E+01  -2.6199141E+00   4.7192097E+00
  -2.1388981E+01  -2.8564298E+00   4.6460419E+00
  -2.2274553E+01  -3.1213915E+00   4.5457778E+00
  -2.3204012E+01  -3.4183137E+00   4.4150786E+00
  -2.4178534E+01  -3.7511833E+00   4.2503471E+00
  -2.5198971E+01  -4.1245379E+00   4.0476837E+00
  -2.6265732E+01  -4.5435543E+00   3.8028650E+00
  -2.7378534E+01  -5.0141296E+00   3.5113308E+00
  -2.8536160E+01  -5.5429673E+00   3.1682751E+00
  -2.9736202E+01  -6.1376538E+00   2.7687931E+00
  -3.0974846E+01  -6.8067436E+00   2.3081264E+00
  -3.2246822E+01  -7.5598640E+00   1.7819070E+00
  -3.3545433E+01  -8.4078417E+00   1.1863177E+00
  -3.4862633E+01  -9.3628283E+00   5.1799917E-01
  -3.6188923E+01  -1.0438342E+01  -2.2633886E-01
  -3.7512691E+01  -1.1649062E+01  -1.0506072E+00
  -3.8818703E+01  -1.3010052E+01  -1.9600432E+00
  -4.0085526E+01  -1.4535018E+01  -2.9613507E+00
  -4.1282253E+01  -1.6233156E+01  -4.0614543E+00
  -4.2365685E+01  -1.8104326E+01  -5.2640796E+00
  -4.3279976E+01  -2.0132801E+01  -6.5639501E+00
  -4.3961037E+01  -2.2280750E+01  -7.9394231E+00
  -4.4347237E+01  -2.4483469E+01  -9.3456116E+00
  -4.4396023E+01  -2.6649284E+01  -1.0710997E+01
  -4.4103233E+01  -2.8666729E+01  -1.1940371E+01
  -4.3519112E+01  -3.0419781E+01  -1.2925297E+01
  -4.2754272E+01  -3.1809223E+01  -1.3560837E+01
  -4.1970821E+01  -3.2774498E+01  -1.3763922E+01
  -4.1359230E+01  -3.3309353E+01  -1.3487343E+01
  -7.7415049E-02  -3.3834648E-01   3.7401867E-01
  -6.4679384E-02  -3.5416603E-01   3.6372280E-01
  -4.7770977E-02  -3.6602211E-01   3.5890722E-01
  -2.9262066E-02  -3.7324905E-01   3.5959816E-01
  -1.1382103E-02  -3.7602901E-01   3.6503220E-01
   4.3177605E-03  -3.7508392E-01   3.7400246E-01
   1.7012596E-02  -3.7138748E-01   3.8520336E-01
   2.6494026E-02  -3.6592007E-01   3.9745903E-01
  -8.6422815E+00  -6.9020170E-01   3.4908161E+00
  -8.9554434E+00  -7.1006817E-01   3.5742891E+00
  -9.2792568E+00  -7.3156899E-01   3.6580117E+00
  -9.6141558E+00  -7.5488961E-01   3.7417960E+00
  -9.9606247E+00  -7.8023785E-01   3.8254395E+00
  -1.0319211E+01  -8.0784678E-01   3.9087222E+00
  -1.0690536E+01  -8.3797878E-01   3.9914043E+00
  -1.1075304E+01  -8.7092900E-01   4.0732193E+00
  -1.1474311E+01  -9.0703028E-01   4.1538692E+00
  -1.1888461E+01  -9.4665873E-01   4.2330151E+00
  -1.2318775E+01  -9.9023962E-01   4.3102651E+00
  -1.2766399E+01  -1.0382547E+00   4.3851643E+00
  -1.3232620E+01  -1.0912505E+00   4.4571757E+00
  -1.3718864E+01  -1.1498471E+00   4.5256634E+00
  -1.4226710E+01  -1.2147483E+00   4.5898714E+00
  -1.4757880E+01  -1.2867533E+00   4.6488986E+00
  -1.5314240E+01  -1.3667687E+00   4.7016768E+00
  -1.5897789E+01  -1.4558218E+00   4.7469435E+00
  -1.6510633E+01  -1.5550753E+00   4.7832174E+00
  -1.7154976E+01  -1.6658429E+00   4.8087816E+00
  -1.7833069E+01  -1.7896065E+00   4.8216629E+00
  -1.8547192E+01  -1.9280344E+00   4.8196263E+00
  -1.9299623E+01  -2.0830050E+00   4.8001699E+00
  -2.0092592E+01  -2.2566316E+00   4.7605357E+00
  -2.0928280E+01  -2.4512970E+00   4.6977124E+00
  -2.1808784E+01  -2.6696939E+00   4.6084313E+00
  -2.2736132E+01  -2.9148819E+00   4.4891777E+00
  -2.3712250E+01  -3.1903555E+00   4.3361464E+00
  -2.4738935E+01  -3.5001295E+00   4.1452045E+00
  -2.5817772E+01  -3.8488376E+00   3.9118161E+00
  -2.6949982E+01  -4.2418442E+00   3.6309867E+00
  -2.8136196E+01  -4.6853657E+00   3.2972393E+00
  -2.9376179E+01  -5.1865969E+00   2.9046688E+00
  -3.0668550E+01  -5.7538524E+00   2.4470973E+00
  -3.2010582E+01  -6.3967338E+00   1.9183184E+00
  -3.3398132E+01  -7.1263404E+00   1.3123099E+00
  -3.4825729E+01  -7.9555397E+00   6.2334538E-01
  -3.6286610E+01  -8.8992643E+00  -1.5425754E-01
  -3.7772507E+01  -9.9747515E+00  -1.0267913E+00
  -3.9272648E+01  -1.1201507E+01  -2.0022032E+00
  -4.0771431E+01  -1.2600633E+01  -3.0911667E+00
  -4.2244537E+01  -1.4192932E+01  -4.3073335E+00
  -4.3653725E+01  -1.5995146E+01  -5.6655927E+00
  -4.4941978E+01  -1.8013811E+01  -7.1770558E+00
  -4.6031673E+01  -2.0236820E+01  -8.8403397E+00
  -4.6829407E+01  -2.2623854E+01  -1.0630107E+01
  -4.7240219E+01  -2.5098547E+01  -1.2485970E+01
  -4.7191341E+01  -2.7546322E+01  -1.4306372E+01
  -4.6661179E+01  -2.9822289E+01  -1.5952340E+01
  -4.5704758E+01  -3.1771271E+01  -1.7263838E+01
  -4.4464348E+01  -3.3257301E+01  -1.8086718E+01
  -4.3157413E+01  -3.4194729E+01  -1.8302925E+01
  -4.2042103E+01  -3.4570110E+01  -1.7853210E+01
  -3.7338753E+01  -3.1112844E+01  -1.5074911E+01
  -8.1120014E-02  -3.3771324E-01   3.2686806E-01
  -5.9197903E-02  -3.5415268E-01   3.2091522E-01
  -3.5451412E-02  -3.6476421E-01   3.2269001E-01
  -1.2924194E-02  -3.6979294E-01   3.3090067E-01
   6.3858032E-03  -3.7020588E-01   3.4368467E-01
   2.1552563E-02  -3.6726570E-01   3.5912180E-01
   3.2475948E-02  -3.6219501E-01   3.7557745E-01
  -8.7145767E+00  -6.6334248E-01   3.5491598E+00
  -9.0314741E+00  -6.8165475E-01   3.6330326E+00
  -9.3592882E+00  -7.0144010E-01   3.7170320E+00
  -9.6984768E+00  -7.2286153E-01   3.8009613E+00
  -1.0049556E+01  -7.4610209E-01   3.8846076E+00
  -1.0413105E+01  -7.7136707E-01   3.9677417E+00
  -1.0789782E+01  -7.9888749E-01   4.0501127E+00
  -1.1180335E+01  -8.2892370E-01   4.1314430E+00
  -1.1585612E+01  -8.6176950E-01   4.2114205E+00
  -1.2006574E+01  -8.9775729E-01   4.2896905E+00
  -1.2444306E+01  -9.3726367E-01   4.3658428E+00
  -1.2900034E+01  -9.8071623E-01   4.4393988E+00
  -1.3375130E+01  -1.0286008E+00   4.5097909E+00
  -1.3871123E+01  -1.0814701E+00   4.5763469E+00
  -1.4389706E+01  -1.1399534E+00   4.6382613E+00
  -1.4932735E+01  -1.2047670E+00   4.6945744E+00
  -1.5502226E+01  -1.2767266E+00   4.7441401E+00
  -1.6100344E+01  -1.3567595E+00   4.7856007E+00
  -1.6729385E+01  -1.4459194E+00   4.8173590E+00
  -1.7391762E+01  -1.5454019E+00   4.8375530E+00
  -1.8089958E+01  -1.6565617E+00   4.8440390E+00
  -1.8826519E+01  -1.7809327E+00   4.8343792E+00
  -1.9604002E+01  -1.9202504E+00   4.8058372E+00
  -2.0424963E+01  -2.0764818E+00   4.7553787E+00
  -2.1291939E+01  -2.2518606E+00   4.6796875E+00
  -2.2207451E+01  -2.4489298E+00   4.5751362E+00
  -2.3174004E+01  -2.6706078E+00   4.4378066E+00
  -2.4194092E+01  -2.9202619E+00   4.2634230E+00
  -2.5270187E+01  -3.2018027E+00   4.0472918E+00
  -2.6404669E+01  -3.5198009E+00   3.7842031E+00
  -2.7599670E+01  -3.8796184E+00   3.4683392E+00
  -2.8856876E+01  -4.2875619E+00   3.0932159E+00
  -3.0177227E+01  -4.7510509E+00   2.6517160E+00
  -3.1560650E+01  -5.2788248E+00   2.1362183E+00
  -3.3005878E+01  -5.8811927E+00   1.5388086E+00
  -3.4510437E+01  -6.5703673E+00   8.5145962E-01
  -3.6070759E+01  -7.3608980E+00   6.5999269E-02
  -3.7682297E+01  -8.2701693E+00  -8.2636189E-01
  -3.9339157E+01  -9.3189030E+00  -1.8360696E+00
  -4.1032719E+01  -1.0531398E+01  -2.9768059E+00
  -4.2748398E+01  -1.1935084E+01  -4.2670851E+00
  -4.4460022E+01  -1.3558653E+01  -5.7308121E+00
  -4.6122177E+01  -1.5427895E+01  -7.3949757E+00
  -4.7662315E+01  -1.7558319E+01  -9.2827015E+00
  -4.8976498E+01  -1.9944340E+01  -1.1400562E+01
  -4.9934067E+01  -2.2546219E+01  -1.3721295E+01
  -5.0395599E+01  -2.5278004E+01  -1.6166191E+01
  -5.0245819E+01  -2.8002155E+01  -1.8594168E+01
  -4.9436169E+01  -3.0537489E+01  -2.0805943E+01
  -4.8024006E+01  -3.2684345E+01  -2.2568428E+01
  -4.6190983E+01  -3.4264328E+01  -2.3657347E+01
  -4.4226791E+01  -3.5163372E+01  -2.3905861E+01
  -4.2478165E+01  -3.5361908E+01  -2.3240913E+01
  -4.1279385E+01  -3.4939911E+01  -2.1692379E+01
  -1.0374260E-01  -3.0749512E-01   2.8867722E-01
  -7.5579166E-02  -3.3061218E-01   2.8030872E-01
  -4.5240402E-02  -3.4648418E-01   2.8270340E-01
  -1.6923904E-02  -3.5536289E-01   2.9382896E-01
   6.8521500E-03  -3.5850048E-01   3.1087589E-01
   2.5051117E-02  -3.5747623E-01   3.3111095E-01
   3.7745476E-02  -3.5379124E-01   3.5230732E-01
  -8.7858906E+00  -6.3054448E-01   3.6038213E+00
  -9.1062937E+00  -6.4692217E-01   3.6881032E+00
  -9.4378519E+00  -6.6458988E-01   3.7724037E+00
  -9.7810421E+00  -6.8368769E-01   3.8565173E+00
  -1.0136406E+01  -7.0437288E-01   3.9402237E+00
  -1.0504555E+01  -7.2682208E-01   4.0232844E+00
  -1.0886178E+01  -7.5123417E-01   4.1054392E+00
  -1.1282063E+01  -7.7783322E-01   4.1864009E+00
  -1.1693102E+01  -8.0687255E-01   4.2658463E+00
  -1.2120307E+01  -8.3863908E-01   4.3434062E+00
  -1.2564823E+01  -8.7345845E-01   4.4186544E+00
  -1.3027946E+01  -9.1170090E-01   4.4910903E+00
  -1.3511125E+01  -9.5378780E-01   4.5601220E+00
  -1.4015982E+01  -1.0001997E+00   4.6250415E+00
  -1.4544313E+01  -1.0514847E+00   4.6850023E+00
  -1.5098093E+01  -1.1082687E+00   4.7389894E+00
  -1.5679473E+01  -1.1712660E+00   4.7857881E+00
  -1.6290773E+01  -1.2412909E+00   4.8239536E+00
  -1.6934464E+01  -1.3192722E+00   4.8517823E+00
  -1.7613144E+01  -1.4062669E+00   4.8672814E+00
  -1.8329525E+01  -1.5034782E+00   4.8681502E+00
  -1.9086382E+01  -1.6122737E+00   4.8517632E+00
  -1.9886551E+01  -1.7342092E+00   4.8151670E+00
  -2.0732895E+01  -1.8710573E+00   4.7550731E+00
  -2.1628302E+01  -2.0248449E+00   4.6678710E+00
  -2.2575699E+01  -2.1978951E+00   4.5496011E+00
  -2.3578072E+01  -2.3928967E+00   4.3959503E+00
  -2.4638493E+01  -2.6129785E+00   4.2021856E+00
  -2.5760118E+01  -2.8618114E+00   3.9630585E+00
  -2.6946146E+01  -3.1437311E+00   3.6726825E+00
  -2.8199686E+01  -3.4638846E+00   3.3244023E+00
  -2.9523552E+01  -3.8284030E+00   2.9106965E+00
  -3.0920002E+01  -4.2446084E+00   2.4231699E+00
  -3.2390488E+01  -4.7212706E+00   1.8526506E+00
  -3.3935524E+01  -5.2689328E+00   1.1893442E+00
  -3.5554771E+01  -5.9003663E+00   4.2292261E-01
  -3.7247238E+01  -6.6311440E+00  -4.5771003E-01
  -3.9011501E+01  -7.4803739E+00  -1.4651935E+00
  -4.0845245E+01  -8.4714661E+00  -2.6153028E+00
  -4.2743488E+01  -9.6327248E+00  -3.9292204E+00
  -4.4694344E+01  -1.0997257E+01  -5.4359465E+00
  -4.6671387E+01  -1.2601374E+01  -7.1733403E+00
  -4.8622910E+01  -1.4480297E+01  -9.1854401E+00
  -5.0459995E+01  -1.6659906E+01  -1.1513215E+01
  -5.2048759E+01  -1.9143810E+01  -1.4176819E+01
  -5.3213448E+01  -2.1896549E+01  -1.7150513E+01
  -5.3758438E+01  -2.4826759E+01  -2.0335468E+01
  -5.3512035E+01  -2.7777359E+01  -2.3541134E+01
  -5.2386883E+01  -3.0532246E+01  -2.6488392E+01
  -5.0438805E+01  -3.2846409E+01  -2.8844589E+01
  -4.7897064E+01  -3.4497139E+01  -3.0288784E+01
  -4.5143169E+01  -3.5341068E+01  -3.0588057E+01
  -4.2636692E+01  -3.5354279E+01  -2.9654287E+01
  -4.0814068E+01  -3.4637455E+01  -2.7556126E+01
  -4.0000191E+01  -3.3385117E+01  -2.4482140E+01
  -9.9143982E-02  -2.9261398E-01   2.4173355E-01
  -6.0628891E-02  -3.1605816E-01   2.4329662E-01
  -2.5071144E-02  -3.3085632E-01   2.5667667E-01
   4.2552948E-03  -3.3850384E-01   2.7783585E-01
   2.6255608E-02  -3.4092522E-01   3.0295563E-01
   4.1238785E-02  -3.3991909E-01   3.2904911E-01
  -8.8529606E+00  -5.9151071E-01   3.6533289E+00
  -9.1765356E+00  -6.0561877E-01   3.7380280E+00
  -9.5114698E+00  -6.2081742E-01   3.8226547E+00
  -9.8582602E+00  -6.3722372E-01   3.9069967E+00
  -1.0217469E+01  -6.5496862E-01   3.9908273E+00
  -1.0589734E+01  -6.7419958E-01   4.0739012E+00
  -1.0975774E+01  -6.9508243E-01   4.1559505E+00
  -1.1376410E+01  -7.1780443E-01   4.2366800E+00
  -1.1792571E+01  -7.4257731E-01   4.3157568E+00
  -1.2225316E+01  -7.6964128E-01   4.3927999E+00
  -1.2675842E+01  -7.9926926E-01   4.4673700E+00
  -1.3145503E+01  -8.3177179E-01   4.5389485E+00
  -1.3635817E+01  -8.6750317E-01   4.6069212E+00
  -1.4148485E+01  -9.0686780E-01   4.6705532E+00
  -1.4685396E+01  -9.5032811E-01   4.7289600E+00
  -1.5248629E+01  -9.9841279E-01   4.7810783E+00
  -1.5840452E+01  -1.0517267E+00   4.8256359E+00
  -1.6463320E+01  -1.1109611E+00   4.8611135E+00
  -1.7119858E+01  -1.1769066E+00   4.8857141E+00
  -1.7812838E+01  -1.2504656E+00   4.8973312E+00
  -1.8545158E+01  -1.3326681E+00   4.8935270E+00
  -1.9319820E+01  -1.4246898E+00   4.8715124E+00
  -2.0139902E+01  -1.5278741E+00   4.8281403E+00
  -2.1008549E+01  -1.6437583E+00   4.7598982E+00
  -2.1928980E+01  -1.7741109E+00   4.6629148E+00
  -2.2904501E+01  -1.9209698E+00   4.5329237E+00
  -2.3938555E+01  -2.0867114E+00   4.3652568E+00
  -2.5034765E+01  -2.2741227E+00   4.1547551E+00
  -2.6196959E+01  -2.4864993E+00   3.8956511E+00
  -2.7429131E+01  -2.7277708E+00   3.5814128E+00
  -2.8735367E+01  -3.0026486E+00   3.2045789E+00
  -3.0119627E+01  -3.3168082E+00   2.7566161E+00
  -3.1585545E+01  -3.6771142E+00   2.2278683E+00
  -3.3136208E+01  -4.0919094E+00   1.6075921E+00
  -3.4774128E+01  -4.5713964E+00   8.8404572E-01
  -3.6501431E+01  -5.1281633E+00   4.4425011E-02
  -3.8320229E+01  -5.7778883E+00  -9.2560196E-01
  -4.0232948E+01  -6.5402374E+00  -2.0431070E+00
  -4.2241901E+01  -7.4398890E+00  -3.3301458E+00
  -4.4347164E+01  -8.5074615E+00  -4.8169479E+00
  -4.6541271E+01  -9.7798653E+00  -6.5453882E+00
  -4.8799473E+01  -1.1299150E+01  -8.5708752E+00
  -5.1065323E+01  -1.3108493E+01  -1.0959494E+01
  -5.3234020E+01  -1.5243656E+01  -1.3776305E+01
  -5.5139519E+01  -1.7718674E+01  -1.7061836E+01
  -5.6555088E+01  -2.0505997E+01  -2.0796928E+01
  -5.7218353E+01  -2.3514977E+01  -2.4862751E+01
  -5.6887398E+01  -2.6576965E+01  -2.9010529E+01
  -5.5423363E+01  -2.9449551E+01  -3.2861420E+01
  -5.2875309E+01  -3.1850052E+01  -3.5954300E+01
  -4.9527573E+01  -3.3517384E+01  -3.7841732E+01
  -4.5873138E+01  -3.4283081E+01  -3.8205437E+01
  -4.2508999E+01  -3.4121361E+01  -3.6942001E+01
  -3.9992714E+01  -3.3153980E+01  -3.4177589E+01
  -3.8721416E+01  -3.1609198E+01  -3.0207165E+01
  -1.1324587E+00  -1.0011024E+00  -4.4849968E-01
  -8.3913803E-02  -2.7261066E-01   2.1009445E-01
  -3.9446831E-02  -2.9552650E-01   2.2381878E-01
  -3.1738281E-03  -3.0965328E-01   2.4791431E-01
   2.3653030E-02  -3.1722832E-01   2.7719402E-01
   4.1699409E-02  -3.2035780E-01   3.0769682E-01
  -8.9126587E+00  -5.4650879E-01   3.6962588E+00
  -9.2389727E+00  -5.5806518E-01   3.7813640E+00
  -9.5768147E+00  -5.7050145E-01   3.8663239E+00
  -9.9266996E+00  -5.8391088E-01   3.9509215E+00
  -1.0289207E+01  -5.9839815E-01   4.0349250E+00
  -1.0664997E+01  -6.1408103E-01   4.1180830E+00
  -1.1054813E+01  -6.3109213E-01   4.2001233E+00
  -1.1459502E+01  -6.4958125E-01   4.2807426E+00
  -1.1880030E+01  -6.6971809E-01   4.3596010E+00
  -1.2317487E+01  -6.9169497E-01   4.4363098E+00
  -1.2773117E+01  -7.1573085E-01   4.5104175E+00
  -1.3248322E+01  -7.4207515E-01   4.5813918E+00
  -1.3744680E+01  -7.7101278E-01   4.6486011E+00
  -1.4263958E+01  -8.0286950E-01   4.7112861E+00
  -1.4808121E+01  -8.3801806E-01   4.7685332E+00
  -1.5379333E+01  -8.7688541E-01   4.8192425E+00
  -1.5979965E+01  -9.1996092E-01   4.8620901E+00
  -1.6612587E+01  -9.6780503E-01   4.8954973E+00
  -1.7279947E+01  -1.0210594E+00   4.9175892E+00
  -1.7984968E+01  -1.0804590E+00   4.9261670E+00
  -1.8730713E+01  -1.1468445E+00   4.9186783E+00
  -1.9520370E+01  -1.2211785E+00   4.8921981E+00
  -2.0357233E+01  -1.3045650E+00   4.8434172E+00
  -2.1244692E+01  -1.3982717E+00   4.7686348E+00
  -2.2186256E+01  -1.5037650E+00   4.6637554E+00
  -2.3185570E+01  -1.6227412E+00   4.5242558E+00
  -2.4246492E+01  -1.7571924E+00   4.3451586E+00
  -2.5373140E+01  -1.9094673E+00   4.1209302E+00
  -2.6569946E+01  -2.0823650E+00   3.8453441E+00
  -2.7841660E+01  -2.2792461E+00   3.5112948E+00
  -2.9193256E+01  -2.5041757E+00   3.1105914E+00
  -3.0629799E+01  -2.7620952E+00   2.6337729E+00
  -3.2156242E+01  -3.0590470E+00   2.0700130E+00