# vtk DataFile Version 3.0
T01 + IGRF magnetic field in GSW coordinates
ASCII
DATASET STRUCTURED_GRID
DIMENSIONS     61    21    21
POINTS    26901 float
     -50.000000     -10.000000     -10.000000
     -49.000000     -10.000000     -10.000000
     -48.000000     -10.000000     -10.000000
     -47.000000     -10.000000     -10.000000
     -46.000000     -10.000000     -10.000000
     -45.000000     -10.000000     -10.000000
     -44.000000     -10.000000     -10.000000
     -43.000000     -10.000000     -10.000000
     -42.000000     -10.000000     -10.000000
     -41.000000     -10.000000     -10.000000
     -40.000000     -10.000000     -10.000000
     -39.000000     -10.000000     -10.000000
     -38.000000     -10.000000     -10.000000
     -37.000000     -10.000000     -10.000000
     -36.000000     -10.000000     -10.000000
     -35.000000     -10.000000     -10.000000
     -34.000000     -10.000000     -10.000000
     -33.000000     -10.000000     -10.000000
     -32.000000     -10.000000     -10.000000
     -31.000000     -10.000000     -10.000000
     -30.000000     -10.000000     -10.000000
     -29.000000     -10.000000     -10.000000
     -28.000000     -10.000000     -10.000000
     -27.000000     -10.000000     -10.000000
     -26.000000     -10.000000     -10.000000
     -25.000000     -10.000000     -10.000000
     -24.000000     -10.000000     -10.000000
     -23.000000     -10.000000     -10.000000
     -22.000000     -10.000000     -10.000000
     -21.000000     -10.000000     -10.000000
     -20.000000     -10.000000     -10.000000
     -19.000000     -10.000000     -10.000000
     -18.000000     -10.000000     -10.000000
     -17.000000     -10.000000     -10.000000
     -16.000000     -10.000000     -10.000000
     -15.000000     -10.000000     -10.000000
     -14.000000     -10.000000     -10.000000
     -13.000000     -10.000000     -10.000000
     -12.000000     -10.000000     -10.000000
     -11.000000     -10.000000     -10.000000
     -10.000000     -10.000000     -10.000000
      -9.000000     -10.000000     -10.000000
      -8.000000     -10.000000     -10.000000
      -7.000000     -10.000000     -10.000000
      -6.000000     -10.000000     -10.000000
      -5.000000     -10.000000     -10.000000
      -4.000000     -10.000000     -10.000000
      -3.000000     -10.000000     -10.000000
      -2.000000     -10.000000     -10.000000
      -1.000000     -10.000000     -10.000000
       0.000000     -10.000000     -10.000000
       1.000000     -10.000000     -10.000000
       2.000000     -10.000000     -10.000000
       3.000000     -10.000000     -10.000000
       4.000000     -10.000000     -10.000000
       5.000000     -10.000000     -10.000000
       6.000000     -10.000000     -10.000000
       7.000000     -10.000000     -10.000000
       8.000000     -10.000000     -10.000000
       9.000000     -10.000000     -10.000000
      10.000000     -10.000000     -10.000000
     -50.000000      -9.000000     -10.000000
     -49.000000      -9.000000     -10.000000
     -48.000000      -9.000000     -10.000000
     -47.000000      -9.000000     -10.000000
     -46.000000      -9.000000     -10.000000
     -45.000000      -9.000000     -10.000000
     -44.000000      -9.000000     -10.000000
     -43.000000      -9.000000     -10.000000
     -42.000000      -9.000000     -10.000000
     -41.000000      -9.000000     -10.000000
     -40.000000      -9.000000     -10.000000
     -39.000000      -9.000000     -10.000000
     -38.000000      -9.000000     -10.000000
     -37.000000      -9.000000     -10.000000
     -36.000000      -9.000000     -10.000000
     -35.000000      -9.000000     -10.000000
     -34.000000      -9.000000     -10.000000
     -33.000000      -9.000000     -10.000000
     -32.000000      -9.000000     -10.000000
     -31.000000      -9.000000     -10.000000
     -30.000000      -9.000000     -10.000000
     -29.000000      -9.000000     -10.000000
     -28.000000      -9.000000     -10.000000
     -27.000000      -9.000000     -10.000000
     -26.000000      -9.000000     -10.000000
     -25.000000      -9.000000     -10.000000
     -24.000000      -9.000000     -10.000000
     -23.000000      -9.000000     -10.000000
     -22.000000      -9.000000     -10.000000
     -21.000000      -9.000000     -10.000000
     -20.000000      -9.000000     -10.000000
     -19.000000      -9.000000     -10.000000
     -18.000000      -9.000000     -10.000000
     -17.000000      -9.000000     -10.000000
     -16.000000      -9.000000     -10.000000
     -15.000000      -9.000000     -10.000000
     -14.000000      -9.000000     -10.000000
     -13.000000      -9.000000     -10.000000
     -12.000000      -9.000000     -10.000000
     -11.000000      -9.000000     -10.000000
     -10.000000      -9.000000     -10.000000
      -9.000000      -9.000000     -10.000000
      -8.000000      -9.000000     -10.000000
      -7.000000      -9.000000     -10.000000
      -6.000000      -9.000000     -10.000000
      -5.000000      -9.000000     -10.000000
      -4.000000      -9.000000     -10.000000
      -3.000000      -9.000000     -10.000000
      -2.000000      -9.000000     -10.000000
      -1.000000      -9.000000     -10.000000
       0.000000      -9.000000     -10.000000
       1.000000      -9.000000     -10.000000
       2.000000      -9.000000     -10.000000
       3.000000      -9.000000     -10.000000
       4.000000      -9.000000     -10.000000
       5.000000      -9.000000     -10.000000
       6.000000      -9.000000     -10.000000
       7.000000      -9.000000     -10.000000
       8.000000      -9.000000     -10.000000
       9.000000      -9.000000     -10.000000
      10.000000      -9.000000     -10.000000
     -50.000000      -8.000000     -10.000000
     -49.000000      -8.000000     -10.000000
     -48.000000      -8.000000     -10.000000
     -47.000000      -8.000000     -10.000000
     -46.000000      -8.000000     -10.000000
     -45.000000      -8.000000     -10.000000
     -44.000000      -8.000000     -10.000000
     -43.000000      -8.000000     -10.000000
     -42.000000      -8.000000     -10.000000
     -41.000000      -8.000000     -10.000000
     -40.000000      -8.000000     -10.000000
     -39.000000      -8.000000     -10.000000
     -38.000000      -8.000000     -10.000000
     -37.000000      -8.000000     -10.000000
     -36.000000      -8.000000     -10.000000
     -35.000000      -8.000000     -10.000000
     -34.000000      -8.000000     -10.000000
     -33.000000      -8.000000     -10.000000
     -32.000000      -8.000000     -10.000000
     -31.000000      -8.000000     -10.000000
     -30.000000      -8.000000     -10.000000
     -29.000000      -8.000000     -10.000000
     -28.000000      -8.000000     -10.000000
     -27.000000      -8.000000     -10.000000
     -26.000000      -8.000000     -10.000000
     -25.000000      -8.000000     -10.000000
     -24.000000      -8.000000     -10.000000
     -23.000000      -8.000000     -10.000000
     -22.000000      -8.000000     -10.000000
     -21.000000      -8.000000     -10.000000
     -20.000000      -8.000000     -10.000000
     -19.000000      -8.000000     -10.000000
     -18.000000      -8.000000     -10.000000
     -17.000000      -8.000000     -10.000000
     -16.000000      -8.000000     -10.000000
     -15.000000      -8.000000     -10.000000
     -14.000000      -8.000000     -10.000000
     -13.000000      -8.000000     -10.000000
     -12.000000      -8.000000     -10.000000
     -11.000000      -8.000000     -10.000000
     -10.000000      -8.000000     -10.000000
      -9.000000      -8.000000     -10.000000
      -8.000000      -8.000000     -10.000000
      -7.000000      -8.000000     -10.000000
      -6.000000      -8.000000     -10.000000
      -5.000000      -8.000000     -10.000000
      -4.000000      -8.000000     -10.000000
      -3.000000      -8.000000     -10.000000
      -2.000000      -8.000000     -10.000000
      -1.000000      -8.000000     -10.000000
       0.000000      -8.000000     -10.000000
       1.000000      -8.000000     -10.000000
       2.000000      -8.000000     -10.000000
       3.000000      -8.000000     -10.000000
       4.000000      -8.000000     -10.000000
       5.000000      -8.000000     -10.000000
       6.000000      -8.000000     -10.000000
       7.000000      -8.000000     -10.000000
       8.000000      -8.000000     -10.000000
       9.000000      -8.000000     -10.000000
      10.000000      -8.000000     -10.000000
     -50.000000      -7.000000     -10.000000
     -49.000000      -7.000000     -10.000000
     -48.000000      -7.000000     -10.000000
     -47.000000      -7.000000     -10.000000
     -46.000000      -7.000000     -10.000000
     -45.000000      -7.000000     -10.000000
     -44.000000      -7.000000     -10.000000
     -43.000000      -7.000000     -10.000000
     -42.000000      -7.000000     -10.000000
     -41.000000      -7.000000     -10.000000
     -40.000000      -7.000000     -10.000000
     -39.000000      -7.000000     -10.000000
     -38.000000      -7.000000     -10.000000
     -37.000000      -7.000000     -10.000000
     -36.000000      -7.000000     -10.000000
     -35.000000      -7.000000     -10.000000
     -34.000000      -7.000000     -10.000000
     -33.000000      -7.000000     -10.000000
     -32.000000      -7.000000     -10.000000
     -31.000000      -7.000000     -10.000000
     -30.000000      -7.000000     -10.000000
     -29.000000      -7.000000     -10.000000
     -28.000000      -7.000000     -10.000000
     -27.000000      -7.000000     -10.000000
     -26.000000      -7.000000     -10.000000
     -25.000000      -7.000000     -10.000000
[...]
POINT_DATA    26901
VECTORS B_total float
  -9.4302988E+00  -1.2433238E+00   3.2508156E+00
  -9.7540407E+00  -1.2776341E+00   3.3360350E+00
  -1.0087158E+01  -1.3135712E+00   3.4218645E+00
  -1.0429930E+01  -1.3513283E+00   3.5080533E+00
  -1.0782674E+01  -1.3911260E+00   3.5943179E+00
  -1.1145758E+01  -1.4332175E+00   3.6803422E+00
  -1.1519605E+01  -1.4778904E+00   3.7657681E+00
  -1.1904699E+01  -1.5254718E+00   3.8501935E+00
  -1.2301593E+01  -1.5763324E+00   3.9331629E+00
  -1.2710919E+01  -1.6308916E+00   4.0141602E+00
  -1.3133392E+01  -1.6896222E+00   4.0926003E+00
  -1.3569813E+01  -1.7530569E+00   4.1678157E+00
  -1.4021080E+01  -1.8217943E+00   4.2390471E+00
  -1.4488184E+01  -1.8965060E+00   4.3054285E+00
  -1.4972210E+01  -1.9779444E+00   4.3659754E+00
  -1.5474336E+01  -2.0669513E+00   4.4195700E+00
  -1.5995825E+01  -2.1644676E+00   4.4649477E+00
  -1.6538010E+01  -2.2715445E+00   4.5006857E+00
  -1.7102282E+01  -2.3893557E+00   4.5251913E+00
  -1.7690073E+01  -2.5192132E+00   4.5366974E+00
  -1.8302830E+01  -2.6625843E+00   4.5332580E+00
  -1.8941990E+01  -2.8211126E+00   4.5127497E+00
  -1.9608952E+01  -2.9966440E+00   4.4728765E+00
  -2.0305038E+01  -3.1912584E+00   4.4111795E+00
  -2.1031473E+01  -3.4073062E+00   4.3250437E+00
  -2.1789326E+01  -3.6474547E+00   4.2117105E+00
  -2.2579464E+01  -3.9147358E+00   4.0682955E+00
  -2.3402479E+01  -4.2126141E+00   3.8917842E+00
  -2.4258583E+01  -4.5450506E+00   3.6790569E+00
  -2.5147478E+01  -4.9165807E+00   3.4269261E+00
  -2.6068171E+01  -5.3323927E+00   3.1321936E+00
  -2.7018742E+01  -5.7984133E+00   2.7917702E+00
  -2.7996098E+01  -6.3213897E+00   2.4028623E+00
  -2.8995689E+01  -6.9089565E+00   1.9632331E+00
  -3.0011242E+01  -7.5696793E+00   1.4715419E+00
  -3.1034492E+01  -8.3130302E+00   9.2773300E-01
  -3.2054970E+01  -9.1492462E+00   3.3342603E-01
  -3.3059765E+01  -1.0088971E+01  -3.0771178E-01
  -3.4033245E+01  -1.1142550E+01  -9.8967159E-01
  -3.4956703E+01  -1.2318811E+01  -1.7038097E+00
  -3.5807934E+01  -1.3623165E+01  -2.4384558E+00
  -3.6560902E+01  -1.5054836E+01  -3.1781738E+00
  -3.7185947E+01  -1.6603336E+01  -3.9024220E+00
  -3.7651291E+01  -1.8244421E+01  -4.5834732E+00
  -3.7926720E+01  -1.9936371E+01  -5.1839085E+00
  -3.7990158E+01  -2.1617741E+01  -5.6544895E+00
  -3.7836910E+01  -2.3208151E+01  -5.9337740E+00
  -3.7490173E+01  -2.4613560E+01  -5.9508996E+00
  -3.7009739E+01  -2.5736279E+01  -5.6322489E+00
  -3.6495441E+01  -2.6488621E+01  -4.9112501E+00
  -9.8903000E-02  -4.0384293E-01   4.1609716E-01
  -8.6831331E-02  -4.2852974E-01   4.0356541E-01
  -6.8400383E-02  -4.4849300E-01   3.9455986E-01
  -4.5821667E-02  -4.6192932E-01   3.9014435E-01
  -2.1772385E-02  -4.6808720E-01   3.9060450E-01
   1.2183189E-03  -4.6728706E-01   3.9548564E-01
   2.1226406E-02  -4.6064186E-01   4.0380335E-01
   3.7141323E-02  -4.4970894E-01   4.1434085E-01
   4.8615456E-02  -4.3610239E-01   4.2591959E-01
   5.5892467E-02  -4.2126846E-01   4.3755829E-01
   5.9566975E-02  -4.0632486E-01   4.4855541E-01
  -9.4738522E+00  -1.1588162E+00   3.2486515E+00
  -9.7996006E+00  -1.1904303E+00   3.3324976E+00
  -1.0134929E+01  -1.2235680E+00   3.4168255E+00
  -1.0480143E+01  -1.2584095E+00   3.5013800E+00
  -1.0835595E+01  -1.2951609E+00   3.5858748E+00
  -1.1201687E+01  -1.3340573E+00   3.6699891E+00
  -1.1578882E+01  -1.3753673E+00   3.7533607E+00
  -1.1967708E+01  -1.4193956E+00   3.8355834E+00
  -1.2368769E+01  -1.4664881E+00   3.9161956E+00
  -1.2782749E+01  -1.5170367E+00   3.9946742E+00
  -1.3210424E+01  -1.5714836E+00   4.0704246E+00
  -1.3652667E+01  -1.6303281E+00   4.1427693E+00
  -1.4110446E+01  -1.6941317E+00   4.2109327E+00
  -1.4584839E+01  -1.7635269E+00   4.2740316E+00
  -1.5077023E+01  -1.8392236E+00   4.3310571E+00
  -1.5588276E+01  -1.9220185E+00   4.3808608E+00
  -1.6119978E+01  -2.0128059E+00   4.4221416E+00
  -1.6673586E+01  -2.1125886E+00   4.4534283E+00
  -1.7250639E+01  -2.2224925E+00   4.4730716E+00
  -1.7852728E+01  -2.3437824E+00   4.4792323E+00
  -1.8481478E+01  -2.4778824E+00   4.4698772E+00
  -1.9138535E+01  -2.6263986E+00   4.4427762E+00
  -1.9825531E+01  -2.7911501E+00   4.3955007E+00
  -2.0544069E+01  -2.9742038E+00   4.3254299E+00
  -2.1295685E+01  -3.1779182E+00   4.2297492E+00
  -2.2081818E+01  -3.4049995E+00   4.1054492E+00
  -2.2903761E+01  -3.6585574E+00   3.9493337E+00
  -2.3762611E+01  -3.9421935E+00   3.7579994E+00
  -2.4659155E+01  -4.2600818E+00   3.5278409E+00
  -2.5593752E+01  -4.6170745E+00   3.2550611E+00
  -2.6566168E+01  -5.0188212E+00   2.9357080E+00
  -2.7575333E+01  -5.4719000E+00   2.5657547E+00
  -2.8619104E+01  -5.9839673E+00   2.1412477E+00
  -2.9693968E+01  -6.5639043E+00   1.6585052E+00
  -3.0794727E+01  -7.2219658E+00   1.1143893E+00
  -3.1914173E+01  -7.9698634E+00   5.0659120E-01
  -3.3042694E+01  -8.8207483E+00  -1.6608423E-01
  -3.4167747E+01  -9.7889557E+00  -9.0346140E-01
  -3.5273163E+01  -1.0889349E+01  -1.7037629E+00
  -3.6338047E+01  -1.2136016E+01  -2.5632472E+00
  -3.7335529E+01  -1.3540074E+01  -3.4755089E+00
  -3.8231327E+01  -1.5106264E+01  -4.4299989E+00
  -3.8983101E+01  -1.6828350E+01  -5.4094076E+00
  -3.9541489E+01  -1.8683437E+01  -6.3856888E+00
  -3.9854519E+01  -2.0626221E+01  -7.3152208E+00
  -3.9876591E+01  -2.2584728E+01  -8.1343679E+00
  -3.9582146E+01  -2.4459829E+01  -8.7577887E+00
  -3.8982018E+01  -2.6130943E+01  -9.0818882E+00
  -3.8137989E+01  -2.7469177E+01  -8.9950514E+00
  -3.7169582E+01  -2.8356812E+01  -8.3939466E+00
  -3.6247784E+01  -2.8708569E+01  -7.2018905E+00
  -2.8796601E-01  -5.7809639E-01   3.3178902E-01
  -8.7778568E-02  -4.6573448E-01   3.4632015E-01
  -5.6986809E-02  -4.8318481E-01   3.3991814E-01
  -2.4554729E-02  -4.9101257E-01   3.4125280E-01
   5.8426857E-03  -4.8976612E-01   3.4940434E-01
   3.1559467E-02  -4.8112869E-01   3.6262488E-01
   5.1240444E-02  -4.6729660E-01   3.7888670E-01
   6.4669609E-02  -4.5045853E-01   3.9631939E-01
   7.2446823E-02  -4.3248367E-01   4.1345322E-01
   7.5576782E-02  -4.1474199E-01   4.2930889E-01
  -9.5125580E+00  -1.0701753E+00   3.2460215E+00
  -9.8401222E+00  -1.0988399E+00   3.3286262E+00
  -1.0177455E+01  -1.1289071E+00   3.4115987E+00
  -1.0524887E+01  -1.1605414E+00   3.4946814E+00
  -1.0882799E+01  -1.1939321E+00   3.5775838E+00
  -1.1251628E+01  -1.2292949E+00   3.6599824E+00
  -1.1631872E+01  -1.2668761E+00   3.7415118E+00
  -1.2024100E+01  -1.3069556E+00   3.8217602E+00
  -1.2428961E+01  -1.3498510E+00   3.9002612E+00
  -1.2847194E+01  -1.3959228E+00   3.9764860E+00
  -1.3279629E+01  -1.4455781E+00   4.0498314E+00
  -1.3727201E+01  -1.4992775E+00   4.1196079E+00
  -1.4190952E+01  -1.5575401E+00   4.1850281E+00
  -1.4672038E+01  -1.6209512E+00   4.2451901E+00
  -1.5171724E+01  -1.6901702E+00   4.2990627E+00
  -1.5691389E+01  -1.7659392E+00   4.3454690E+00
  -1.6232519E+01  -1.8490934E+00   4.3830705E+00
  -1.6796701E+01  -1.9405739E+00   4.4103527E+00
  -1.7385611E+01  -2.0414417E+00   4.4256091E+00
  -1.8000996E+01  -2.1528947E+00   4.4269323E+00
  -1.8644670E+01  -2.2762895E+00   4.4122038E+00
  -1.9318487E+01  -2.4131658E+00   4.3790870E+00
  -2.0024326E+01  -2.5652809E+00   4.3250256E+00
  -2.0764072E+01  -2.7346461E+00   4.2472358E+00
  -2.1539598E+01  -2.9235797E+00   4.1426983E+00
  -2.2352741E+01  -3.1347578E+00   4.0081587E+00
  -2.3205267E+01  -3.3713005E+00   3.8400950E+00
  -2.4098820E+01  -3.6368537E+00   3.6347005E+00
  -2.5034851E+01  -3.9356973E+00   3.3878617E+00
  -2.6014492E+01  -4.2728753E+00   3.0951335E+00
  -2.7038418E+01  -4.6543493E+00   2.7517462E+00
  -2.8106627E+01  -5.0871849E+00   2.3526390E+00
  -2.9218216E+01  -5.5797586E+00   1.8925424E+00
  -3.0371088E+01  -6.1420045E+00   1.3660955E+00
  -3.1561638E+01  -6.7856712E+00   7.6799965E-01
  -3.2784348E+01  -7.5245495E+00   9.3156338E-02
  -3.4031261E+01  -8.3746243E+00  -6.6323584E-01
  -3.5291130E+01  -9.3539848E+00  -1.5056301E+00
  -3.6548187E+01  -1.0482316E+01  -2.4380498E+00
  -3.7780258E+01  -1.1779652E+01  -3.4637675E+00
  -3.8956268E+01  -1.3264011E+01  -4.5843096E+00
  -4.0033390E+01  -1.4947468E+01  -5.7971745E+00
  -4.0954865E+01  -1.6830452E+01  -7.0916100E+00
  -4.1649971E+01  -1.8894226E+01  -8.4420624E+00
  -4.2038723E+01  -2.1092520E+01  -9.7998619E+00
  -4.2043427E+01  -2.3344347E+01  -1.1085049E+01
  -4.1607895E+01  -2.5531082E+01  -1.2181847E+01
  -4.0722401E+01  -2.7501869E+01  -1.2942170E+01
  -3.9447441E+01  -2.9089987E+01  -1.3200534E+01
  -3.7926800E+01  -3.0139610E+01  -1.2800062E+01
  -3.6380432E+01  -3.0536892E+01  -1.1623570E+01
  -3.5074356E+01  -3.0235195E+01  -9.6188841E+00
  -1.1308146E-01  -4.7608566E-01   2.8409195E-01
  -7.1509838E-02  -4.9888611E-01   2.7465630E-01
  -2.8144836E-02  -5.0923347E-01   2.7721977E-01
   1.1691093E-02  -5.0801182E-01   2.9005480E-01
   4.4412613E-02  -4.9760818E-01   3.1019974E-01
   6.8461418E-02  -4.8101902E-01   3.3439255E-01
   8.3905220E-02  -4.6112442E-01   3.5975194E-01
   9.1893196E-02  -4.4025183E-01   3.8416040E-01
   9.4027519E-02  -4.2002487E-01   4.0630001E-01
  -9.5464354E+00  -9.7800040E-01   3.2430737E+00
  -9.8756189E+00  -1.0034956E+00   3.3245711E+00
  -1.0214739E+01  -1.0302547E+00   3.4063382E+00
  -1.0564152E+01  -1.0584263E+00   3.4881134E+00
  -1.0924264E+01  -1.0881803E+00   3.5696042E+00
  -1.1295542E+01  -1.1197110E+00   3.6504834E+00
  -1.1678517E+01  -1.1532397E+00   3.7303829E+00
  -1.2073795E+01  -1.1890190E+00   3.8088870E+00
  -1.2482069E+01  -1.2273351E+00   3.8855250E+00
  -1.2904121E+01  -1.2685128E+00   3.9597619E+00
  -1.3340837E+01  -1.3129205E+00   4.0309868E+00
  -1.3793210E+01  -1.3609742E+00   4.0985012E+00
  -1.4262347E+01  -1.4131447E+00   4.1615043E+00
  -1.4749477E+01  -1.4699636E+00   4.2190776E+00
  -1.5255948E+01  -1.5320307E+00   4.2701693E+00
  -1.5783233E+01  -1.6000234E+00   4.3135757E+00
  -1.6332920E+01  -1.6747066E+00   4.3479247E+00
  -1.6906719E+01  -1.7569447E+00   4.3716588E+00
  -1.7506433E+01  -1.8477163E+00   4.3830199E+00
  -1.8133976E+01  -1.9481318E+00   4.3800359E+00
  -1.8791330E+01  -2.0594547E+00   4.3605051E+00
  -1.9480566E+01  -2.1831279E+00   4.3219924E+00
  -2.0203800E+01  -2.3208079E+00   4.2618146E+00
  -2.0963209E+01  -2.4744043E+00   4.1770310E+00
  -2.1761013E+01  -2.6461356E+00   4.0644255E+00
  -2.2599459E+01  -2.8385837E+00   3.9204948E+00
  -2.3480804E+01  -3.0547867E+00   3.7413967E+00
  -2.4407291E+01  -3.2983286E+00   3.5229206E+00
  -2.5381083E+01  -3.5734651E+00   3.2604303E+00
  -2.6404171E+01  -3.8852708E+00   2.9488165E+00
  -2.7478270E+01  -4.2398262E+00   2.5824523E+00
  -2.8604628E+01  -4.6444435E+00   2.1551707E+00
  -2.9783831E+01  -5.1079416E+00   1.6602635E+00
  -3.1015574E+01  -5.6409788E+00   1.0904962E+00
  -3.2298332E+01  -6.2564182E+00   4.3808442E-01
  -3.3628956E+01  -6.9697280E+00  -3.0536467E-01
  -3.5001984E+01  -7.7993150E+00  -1.1490381E+00
  -3.6408543E+01  -8.7666779E+00  -2.1031723E+00
  -3.7834522E+01  -9.8961401E+00  -3.1792872E+00
  -3.9257763E+01  -1.1213807E+01  -4.3900399E+00
  -4.0644104E+01  -1.2745249E+01  -5.7480898E+00
  -4.1942612E+01  -1.4511265E+01  -7.2630138E+00
  -4.3081104E+01  -1.6521233E+01  -8.9352369E+00
  -4.3964226E+01  -1.8763752E+01  -1.0746170E+01
  -4.4477444E+01  -2.1195280E+01  -1.2645020E+01
  -4.4500912E+01  -2.3729099E+01  -1.4534760E+01
  -4.3935539E+01  -2.6228653E+01  -1.6262295E+01
  -4.2739399E+01  -2.8511387E+01  -1.7620514E+01
  -4.0965603E+01  -3.0367916E+01  -1.8368710E+01
  -3.8786125E+01  -3.1597254E+01  -1.8272711E+01
  -3.6485371E+01  -3.2050453E+01  -1.7155781E+01
  -3.4416840E+01  -3.1667446E+01  -1.4942104E+01
  -3.2933640E+01  -3.0491673E+01  -1.1673440E+01
  -9.0690613E-02  -5.0296783E-01   1.9396114E-01
  -3.3463478E-02  -5.1721001E-01   1.9788361E-01
   1.8114090E-02  -5.1709270E-01   2.1693897E-01
   5.9286118E-02  -5.0583935E-01   2.4630451E-01
   8.8321686E-02  -4.8736763E-01   2.8088570E-01
   1.0580730E-01  -4.6527576E-01   3.1644130E-01
   1.1369038E-01  -4.4237137E-01   3.5000658E-01
   1.1435699E-01  -4.2049789E-01   3.7988985E-01
  -9.5755434E+00  -8.8284123E-01   3.2400045E+00
  -9.9061422E+00  -9.0497667E-01   3.3205338E+00
  -1.0246825E+01  -9.2822278E-01   3.4012480E+00
  -1.0597972E+01  -9.5270979E-01   3.4818828E+00
  -1.0960012E+01  -9.7858691E-01   3.5621445E+00
  -1.1333437E+01  -1.0060250E+00   3.6417029E+00
  -1.1718808E+01  -1.0352184E+00   3.7201867E+00
  -1.2116769E+01  -1.0663888E+00   3.7971778E+00
  -1.2528043E+01  -1.0997885E+00   3.8722012E+00
  -1.2953458E+01  -1.1357034E+00   3.9447165E+00
  -1.3393948E+01  -1.1744581E+00   4.0141068E+00
  -1.3850554E+01  -1.2164199E+00   4.0796628E+00
  -1.4324450E+01  -1.2620052E+00   4.1405749E+00
  -1.4816924E+01  -1.3116846E+00   4.1959076E+00
  -1.5329405E+01  -1.3659906E+00   4.2445917E+00
  -1.5863448E+01  -1.4255260E+00   4.2853985E+00
  -1.6420740E+01  -1.4909731E+00   4.3169255E+00
  -1.7003096E+01  -1.5631056E+00   4.3375764E+00
  -1.7612455E+01  -1.6428024E+00   4.3455448E+00
  -1.8250866E+01  -1.7310652E+00   4.3387976E+00
  -1.8920488E+01  -1.8290384E+00   4.3150597E+00
  -1.9623589E+01  -1.9380361E+00   4.2718015E+00
  -2.0362524E+01  -2.0595746E+00   4.2062225E+00
  -2.1139751E+01  -2.1954131E+00   4.1152344E+00
  -2.1957827E+01  -2.3476098E+00   3.9954326E+00
  -2.2819408E+01  -2.5185747E+00   3.8430746E+00
  -2.3727255E+01  -2.7111695E+00   3.6540134E+00
  -2.4684216E+01  -2.9287977E+00   3.4236412E+00
  -2.5693192E+01  -3.1755376E+00   3.1468112E+00
  -2.6757090E+01  -3.4563072E+00   2.8177497E+00
  -2.7878735E+01  -3.7770662E+00   2.4299641E+00
  -2.9060753E+01  -4.1450744E+00   1.9761500E+00
  -3.0305426E+01  -4.5692186E+00   1.4480965E+00
  -3.1614517E+01  -5.0604105E+00   8.3655298E-01
  -3.2989014E+01  -5.6320653E+00   1.3102025E-01
  -3.4428722E+01  -6.3006358E+00  -6.8059480E-01
  -3.5931519E+01  -7.0861578E+00  -1.6125207E+00
  -3.7492004E+01  -8.0126591E+00  -2.6818225E+00
  -3.9099129E+01  -9.1082172E+00  -3.9091210E+00
  -4.0732388E+01  -1.0404262E+01  -5.3188605E+00
  -4.2356236E+01  -1.1933524E+01  -6.9382429E+00
  -4.3912949E+01  -1.3725847E+01  -8.7935429E+00
  -4.5315094E+01  -1.5800949E+01  -1.0902070E+01
  -4.6440441E+01  -1.8157530E+01  -1.3258392E+01
  -4.7134102E+01  -2.0759041E+01  -1.5814754E+01
  -4.7223701E+01  -2.3518108E+01  -1.8458254E+01
  -4.6552994E+01  -2.6285149E+01  -2.0992544E+01
  -4.5033134E+01  -2.8848944E+01  -2.3135376E+01
  -4.2700420E+01  -3.0957453E+01  -2.4544743E+01
  -3.9757336E+01  -3.2361671E+01  -2.4878277E+01
  -3.6569557E+01  -3.2873730E+01  -2.3873932E+01
  -3.3605499E+01  -3.2418022E+01  -2.1421747E+01
  -3.1333570E+01  -3.1052528E+01  -1.7593145E+01
  -2.8320005E+01  -2.7243725E+01  -1.1849842E+01
  -4.2096138E-02  -5.0783539E-01   1.0553646E-01
   2.3681641E-02  -5.1081085E-01   1.3198757E-01
   7.4807167E-02  -5.0064945E-01   1.7265129E-01
   1.0948944E-01  -4.8218441E-01   2.1993685E-01
   1.2909031E-01  -4.5970821E-01   2.6777840E-01
   1.3661861E-01  -4.3644190E-01   3.1218028E-01
   1.3546276E-01  -4.1441441E-01   3.5105634E-01
  -9.5999584E+00  -7.8520650E-01   3.2370372E+00
  -9.9317617E+00  -8.0382097E-01   3.3167405E+00
  -1.0273777E+01  -8.2337946E-01   3.3965576E+00
  -1.0626402E+01  -8.4399271E-01   3.4762232E+00
  -1.0990088E+01  -8.6578768E-01   3.5554407E+00
  -1.1365348E+01  -8.8890952E-01   3.6338782E+00
  -1.1752770E+01  -9.1352391E-01   3.7111630E+00
  -1.2153024E+01  -9.3981951E-01   3.7868733E+00
  -1.2566869E+01  -9.6801126E-01   3.8605309E+00
  -1.2995168E+01  -9.9834293E-01   3.9315910E+00
  -1.3438894E+01  -1.0310916E+00   3.9994302E+00
  -1.3899139E+01  -1.0665715E+00   4.0633335E+00
  -1.4377125E+01  -1.1051385E+00   4.1224785E+00
  -1.4874201E+01  -1.1471963E+00   4.1759195E+00
  -1.5391861E+01  -1.1932023E+00   4.2225680E+00
  -1.5931737E+01  -1.2436748E+00   4.2611761E+00
  -1.6495602E+01  -1.2992029E+00   4.2903132E+00
  -1.7085371E+01  -1.3604559E+00   4.3083491E+00
  -1.7703093E+01  -1.4281963E+00   4.3134346E+00
  -1.8350954E+01  -1.5032959E+00   4.3034821E+00
  -1.9031269E+01  -1.5867555E+00   4.2761502E+00
  -1.9746485E+01  -1.6797286E+00   4.2288241E+00
  -2.0499178E+01  -1.7835525E+00   4.1585979E+00
  -2.1292074E+01  -1.8997873E+00   4.0622487E+00
  -2.2128048E+01  -2.0302677E+00   3.9361999E+00
  -2.3010149E+01  -2.1771564E+00   3.7764897E+00
  -2.3941612E+01  -2.3430371E+00   3.5786839E+00
  -2.4925879E+01  -2.5310071E+00   3.3378069E+00
  -2.5966579E+01  -2.7448063E+00   3.0482278E+00
  -2.7067537E+01  -2.9889858E+00   2.7035375E+00
  -2.8232702E+01  -3.2691147E+00   2.2964067E+00
  -2.9466131E+01  -3.5920544E+00   1.8184155E+00
  -3.0771894E+01  -3.9663062E+00   1.2598478E+00
  -3.2153992E+01  -4.4024534E+00   6.0940814E-01
  -3.3616203E+01  -4.9137087E+00  -1.4622247E-01
  -3.5161716E+01  -5.5165529E+00  -1.0230579E+00
  -3.6792408E+01  -6.2314477E+00  -2.0407774E+00
  -3.8507305E+01  -7.0834861E+00  -3.2240090E+00
  -4.0299728E+01  -8.1027803E+00  -4.6037130E+00
  -4.2152576E+01  -9.3241997E+00  -6.2180982E+00
  -4.4030998E+01  -1.0785792E+01  -8.1120062E+00
  -4.5872581E+01  -1.2524992E+01  -1.0332886E+01
  -4.7576115E+01  -1.4571386E+01  -1.2920992E+01
  -4.8992126E+01  -1.6935036E+01  -1.5891336E+01
  -4.9921425E+01  -1.9589937E+01  -1.9206165E+01
  -5.0130241E+01  -2.2454514E+01  -2.2740761E+01
  -4.9391220E+01  -2.5374950E+01  -2.6252089E+01
  -4.7552238E+01  -2.8121029E+01  -2.9367718E+01
  -4.4620640E+01  -3.0406736E+01  -3.1616646E+01
  -4.0829075E+01  -3.1941109E+01  -3.2513245E+01
  -3.6640247E+01  -3.2500252E+01  -3.1679394E+01
  -3.2665539E+01  -3.1993671E+01  -2.8957977E+01
  -2.9517834E+01  -3.0492512E+01  -2.4460905E+01
  -2.7660763E+01  -2.8204494E+01  -1.8524265E+01
  -5.6451797E-02  -4.7367859E-01   7.0037842E-03
   2.5846481E-02  -4.8268318E-01   4.0872574E-02
   8.8445663E-02  -4.7676468E-01   9.3903542E-02
   1.2952709E-01  -4.6139240E-01   1.5529823E-01
   1.5149975E-01  -4.4140816E-01   2.1671343E-01
   1.5869808E-01  -4.2033052E-01   2.7294779E-01
   1.5565491E-01  -4.0031910E-01   3.2149529E-01
  -9.6197634E+00  -6.8557084E-01   3.2343957E+00
  -9.9525547E+00  -7.0053095E-01   3.3134189E+00
  -1.0295667E+01  -7.1625704E-01   3.3924987E+00
  -1.0649508E+01  -7.3283929E-01   3.4713681E+00
  -1.1014549E+01  -7.5038087E-01   3.5497293E+00
  -1.1391322E+01  -7.6899999E-01   3.6272488E+00
  -1.1780437E+01  -7.8883135E-01   3.7035518E+00
  -1.2182582E+01  -8.1002861E-01   3.7782142E+00
  -1.2598551E+01  -8.3276671E-01   3.8507552E+00
  -1.3029234E+01  -8.5724467E-01   3.9206262E+00
  -1.3475638E+01  -8.8368851E-01   3.9871986E+00
  -1.3938898E+01  -9.1235471E-01   4.0497518E+00
  -1.4420272E+01  -9.4353455E-01   4.1074543E+00
  -1.4921166E+01  -9.7755867E-01   4.1593499E+00
  -1.5443129E+01  -1.0148020E+00   4.2043362E+00
  -1.5987854E+01  -1.0556908E+00   4.2411461E+00
  -1.6557192E+01  -1.1007098E+00   4.2683268E+00
  -1.7153141E+01  -1.1504116E+00   4.2842188E+00
  -1.7777847E+01  -1.2054271E+00   4.2869363E+00
  -1.8433615E+01  -1.2664798E+00   4.2743464E+00
  -1.9122894E+01  -1.3344029E+00   4.2440491E+00
  -1.9848288E+01  -1.4101599E+00   4.1933575E+00
  -2.0612577E+01  -1.4948728E+00   4.1192741E+00
  -2.1418713E+01  -1.5898554E+00   4.0184574E+00
  -2.2269863E+01  -1.6966615E+00   3.8871825E+00
  -2.3169420E+01  -1.8171290E+00   3.7212927E+00
  -2.4121067E+01  -1.9534683E+00   3.5161033E+00
  -2.5128780E+01  -2.1083431E+00   3.2663059E+00
  -2.6196873E+01  -2.2849939E+00   2.9658384E+00
  -2.7330013E+01  -2.4873898E+00   2.6077170E+00
  -2.8533243E+01  -2.7204282E+00   2.1838422E+00
  -2.9811985E+01  -2.9901991E+00   1.6847600E+00
  -3.1172070E+01  -3.3043246E+00   1.0993402E+00