<?xml version="1.0"?>
<VTKFile type="StructuredGrid" version="0.1" byte_order="LittleEndian" header_type="UInt32" compressor="vtkZLibDataCompressor">
  <StructuredGrid WholeExtent="0 60 0 20 0 20">
  <Piece Extent="0 60 0 20 0 20">
    <PointData Vectors="B_total">
      <DataArray type="Float32" Name="B_total" NumberOfComponents="3" format="ascii" RangeMin="0" RangeMax="57400.201971252696">
        -8.900662 -0.99857056 3.2959166 -9.212808 -1.0267925 3.3794372
        -9.534614 -1.0567691 3.463536 -9.866408 -1.0887152 3.548008
        -10.208563 -1.1228734 3.6326263 -10.5615 -1.1595196 3.7171392
        -10.925697 -1.1989657 3.8012652 -11.301702 -1.2415642 3.8846886
        -11.690132 -1.2877129 3.9670527 -12.091689 -1.3378613 4.0479527
        -12.507162 -1.3925147 4.1269255 -12.937434 -1.4522433 4.20344
        -13.383491 -1.5176873 4.276886 -13.846421 -1.5895661 4.346556
        -14.327415 -1.6686871 4.411636 -14.827762 -1.7559549 4.4711857
        -15.348851 -1.8523815 4.524123 -15.892148 -1.9590985 4.5692115
        -16.459185 -2.0773692 4.605044 -17.051546 -2.208603 4.6300325
        -17.670832 -2.35437 4.6424017 -18.318642 -2.5164227 4.6401873
        -18.996538 -2.6967134 4.6212325 -19.706024 -2.897425 4.5832005
        -20.448511 -3.121 4.5235734 -21.225277 -3.3701835 4.439663
        -22.03743 -3.6480615 4.3286095 -22.88585 -3.958126 4.187381
        -23.771126 -4.304332 4.0127687 -24.693405 -4.691165 3.801394
        -25.652262 -5.1237144 3.5497324 -26.646477 -5.6077485 3.254187
        -27.67381 -6.1497784 2.9112186 -28.730743 -6.7571263 2.5175576
        -29.812254 -7.4379773 2.070481 -30.91162 -8.201394 1.5681218
        -32.020267 -9.057271 1.0097685 -33.12761 -10.016158 0.39608204
        -34.22078 -11.088827 -0.2707988 -35.28418 -12.285429 -0.98723173
        -36.298725 -13.614031 -1.7479709 -37.24096 -15.078337 -2.5456898
        -38.08231 -16.674456 -3.3697982 -38.78944 -18.386963 -4.2042437
        -39.326637 -20.184734 -5.024489 -39.66135 -22.017849 -5.7943788
        -39.772964 -23.816902 -6.464238 -39.663887 -25.496601 -6.9718447
        -39.37003 -26.964401 -7.2473803 -38.967026 -28.133636 -7.222249
        -38.568783 -28.938732 -6.840166 -0.08894856 -0.3901949 0.40116596
        -0.07700801 -0.4094305 0.38853693 -0.05968952 -0.42431736 0.37991142
        -0.039191723 -0.43363476 0.37610006 -0.01792574 -0.4370575 0.37714577
        0.0020046234 -0.43508816 0.38242483 0.019111633 -0.4287758 0.3909135
        0.032622337 -0.41941357 0.40144157 0.04236412 -0.40824556 0.4129362
        0.04861641 -0.39634466 0.42451727 -8.956343 -0.93772393 3.313137
        -9.271354 -0.9640222 3.3959563 -9.596278 -0.99198043 3.4792354
        -9.931471 -1.021798 3.562765 -10.277338 -1.053701 3.6463115
        -10.634339 -1.0879458 3.7296174 -11.002997 -1.1248225 3.8123944
        -11.383904 -1.1646591 3.8943193 -11.777732 -1.2078264 3.9750266
        -12.185244 -1.2547432 4.0541 -12.607298 -1.305882 4.131064
        -13.044854 -1.3617759 4.2053704 -13.498986 -1.4230257 4.276387
        -13.970879 -1.4903079 4.3433795 -14.461832 -1.564384 4.4054995
        -14.973262 -1.6461097 4.4617624 -15.506689 -1.7364464 4.511035
        -16.063732 -1.8364732 4.5520115 -16.646097 -1.9474002 4.583204
        -17.255548 -2.0705845 4.602927 -17.8939 -2.2075477 4.609288
        -18.562984 -2.3599963 4.600181 -19.26463 -2.5298483 4.573286
        -20.000628 -2.719264 4.526069 -20.77273 -2.9306817 4.455783
        -21.582598 -3.1668706 4.359465 -22.431782 -3.4309757 4.2339272
        -23.321674 -3.7266018 4.0757422 -24.253439 -4.057882 3.8812177
        -25.227894 -4.429575 3.6463828 -26.245352 -4.8471675 3.3669891
        -27.305422 -5.316988 3.0385528 -28.406754 -5.8463326 2.6564631
        -29.546782 -6.4435987 2.2161565 -30.721466 -7.1184306 1.713351
        -31.925056 -7.8818426 1.1442943 -33.149837 -8.746302 0.50597525
        -34.385784 -9.725674 -0.20376217 -35.619957 -10.834884 -0.9862368
        -36.835506 -12.089079 -1.8419499 -38.01011 -13.501985 -2.7703927
        -39.114 -15.083117 -3.76912 -40.108166 -16.833649 -4.831607
        -40.943848 -18.740917 -5.9434257 -41.56507 -20.772299 -7.07698
        -41.91593 -22.869839 -8.185869 -41.95324 -24.947903 -9.201118
        -41.663296 -26.89645 -10.031845 -41.07883 -28.591915 -10.572659
        -40.28997 -29.915308 -10.717856 -39.44331 -30.774162 -10.379713
        -38.726334 -31.122105 -9.505487 -0.09676087 -0.41230774 0.34537792
        -0.07362723 -0.4315834 0.33367872 -0.046426773 -0.44367027 0.32933855
        -0.01864338 -0.4482069 0.3322115 0.0067949295 -0.44596958 0.34113598
        0.027973652 -0.4384365 0.35438251 0.044038296 -0.4273367 0.37013412
        0.055007458 -0.41429615 0.38678336 0.061448097 -0.40063334 0.40311658
        -9.012214 -0.874408 3.3318167 -9.330017 -0.8984854 3.4140358
        -9.657966 -0.92410016 3.4966033 -9.996445 -0.9514346 3.5793033
        -10.345889 -0.98069555 3.6618974 -10.706794 -1.0121171 3.7441208
        -11.07972 -1.0459645 3.8256786 -11.465304 -1.0825379 3.906239
        -11.86427 -1.1221769 3.9854271 -12.277438 -1.1652654 4.062816
        -12.705727 -1.2122372 4.137915 -13.150173 -1.263583 4.210159
        -13.611931 -1.3198563 4.2788925 -14.092278 -1.3816824 4.343354
        -14.592619 -1.4497668 4.4026604 -15.114485 -1.5249045 4.4557824
        -15.65953 -1.6079923 4.5015306 -16.22952 -1.7000401 4.538535
        -16.826326 -1.8021854 4.5652237 -17.451897 -1.9157097 4.5798125
        -18.108257 -2.0420575 4.580289 -18.797472 -2.182859 4.5644073
        -19.521633 -2.3399572 4.5296774 -20.282848 -2.515444 4.4733686
        -21.083212 -2.7117023 4.3924956 -21.924795 -2.9314535 4.2838144
        -22.80963 -3.1778326 4.1437955 -23.73967 -3.4544609 3.9685934
        -24.716736 -3.7655456 3.7540047 -25.742409 -4.115992 3.4954214
        -26.817886 -4.511538 3.1878064 -27.943789 -4.95891 2.8256965
        -29.119923 -5.466008 2.4032726 -30.34502 -6.0421147 1.9144714
        -31.616493 -6.6981463 1.3531476 -32.930164 -7.4469104 0.71321255
        -34.279938 -8.303356 -0.011307001 -35.657257 -9.284695 -0.8263614
        -37.05013 -10.410252 -1.7381011 -38.441437 -11.700739 -2.7530766
        -39.806335 -13.176565 -3.8779955 -41.108803 -14.854672 -5.1183505
        -42.298138 -16.743477 -6.475055 -43.306976 -18.835728 -7.938409
        -44.053417 -21.099903 -9.479538 -44.449947 -23.471771 -11.040868
        -44.420918 -25.849316 -12.528889 -43.92733 -28.094841 -13.813676
        -42.99343 -30.047943 -14.739254 -41.72556 -31.549849 -15.145927
        -40.31303 -32.474632 -14.900336 -39.005585 -32.757774 -13.923859
        -38.07174 -32.411682 -12.208692 -0.09185648 -0.42949677 0.27676964
        -0.056103706 -0.44564438 0.2715845 -0.020105362 -0.45231724 0.27693367
        0.012107849 -0.4506073 0.2907939 0.03812027 -0.44250202 0.31040096
        0.057064056 -0.43026733 0.33298302 0.069257736 -0.41593266 0.35623074
        0.07569504 -0.40106392 0.37850833 -9.066602 -0.80871886 3.3514893
        -9.387053 -0.8303082 3.43322 -9.71786 -0.8532882 3.5151968
        -10.059437 -0.8778223 3.5971982 -10.412243 -0.9040954 3.6789792
        -10.776806 -0.93231744 3.760269 -11.153723 -0.96272594 3.8407652
        -11.54367 -0.99559 3.9201288 -11.947418 -1.0312144 3.9979753
        -12.365837 -1.0699439 4.073866 -12.799909 -1.1121689 4.1472964
        -13.250733 -1.1583318 4.217684 -13.719542 -1.208932 4.284351
        -14.207697 -1.2645355 4.34651 -14.716702 -1.3257822 4.403241
        -15.248199 -1.3933953 4.4534736 -15.803963 -1.4681928 4.495966
        -16.385899 -1.5510993 4.5292797 -16.996035 -1.64316 4.5517654
        -17.636503 -1.7455578 4.5615425 -18.30952 -1.8596317 4.5564823
        -19.017387 -1.9869008 4.5341997 -19.762463 -2.1290944 4.4920425
        -20.547152 -2.2881858 4.427082 -21.37391 -2.4664414 4.336102
        -22.245232 -2.6664686 4.215574 -23.163649 -2.891299 4.0616245
        -24.131704 -3.144468 3.869988 -25.151926 -3.4301267 3.6359324
        -26.22673 -3.7531705 3.3541908 -27.358318 -4.119401 3.018897
        -28.548477 -4.535719 2.6235461 -29.798399 -5.0103593 2.1610007
        -31.108442 -5.553185 1.6235301 -32.47792 -6.176034 1.0028536
        -33.904846 -6.8931313 0.29011965 -35.385555 -7.721513 -0.52427423
        -36.914005 -8.681397 -1.4510783 -38.480392 -9.796286 -2.5027838
        -40.06869 -11.092477 -3.6941407 -41.65278 -12.597521 -5.0420465
        -43.191086 -14.336878 -6.5637727 -44.6207 -16.328129 -8.272215
        -45.853 -18.572243 -10.167036 -46.77436 -21.042149 -12.22156
        -47.256428 -23.67064 -14.367375 -47.179 -26.341146 -16.481205
        -46.465565 -28.887587 -18.381466 -45.12393 -31.108881 -19.841965
        -43.27757 -32.80025 -20.625706 -41.170513 -33.79613 -20.533268
        -39.135593 -34.01088 -19.449886 -37.53182 -33.46103 -17.37197
        -28.173916 -24.855316 -11.004105 -0.06969929 -0.43421555 0.20416927
        -0.023561478 -0.44472122 0.21235275 0.01689148 -0.4450493 0.2323389
        0.048612595 -0.43775463 0.25985813 0.07082176 -0.4256401 0.2908411
        0.08428764 -0.41116047 0.3220706 0.09058857 -0.39613914 0.35140085
        -9.1177845 -0.7407555 3.3713663 -9.440671 -0.75962263 3.452721
        -9.774104 -0.77971345 3.5342302 -10.118516 -0.8011704 3.6156673
        -10.474393 -0.8241552 3.6967816 -10.842292 -0.8488511 3.777297
        -11.222838 -0.8754656 3.8569047 -11.616748 -0.9042341 3.9352572
        -12.02483 -0.93542343 4.011962 -12.448001 -0.96933556 4.0865693
        -12.887297 -1.0063132 4.1585617 -13.343878 -1.0467446 4.2273397
        -13.819044 -1.0910697 4.292207 -14.314236 -1.1397876 4.3523483
        -14.831042 -1.1934633 4.4068127 -15.371207 -1.2527381 4.4544897
        -15.936618 -1.3183383 4.4940863 -16.529308 -1.3910875 4.524105
        -17.151453 -1.4719204 4.542822 -17.805347 -1.5618978 4.5482645
        -18.493399 -1.6622263 4.5381975 -19.218126 -1.7742817 4.5101066
        -19.982138 -1.8996369 4.461184 -20.78814 -2.0400982 4.3883157
        -21.638935 -2.1977541 4.2880616 -22.537428 -2.375023 4.1566234
        -23.486654 -2.5747385 3.9897957 -24.489758 -2.800235 3.782897
        -25.549992 -3.0554624 3.5306787 -26.670649 -3.3451273 3.2272153
        -27.85499 -3.6748714 2.8658051 -29.106085 -4.051491 2.4388742
        -30.426676 -4.4832134 1.9379127 -31.81901 -4.9800534 1.35341
        -33.284683 -5.5542555 0.6747563 -34.82445 -6.2208333 -0.11000824
        -36.437855 -6.998184 -1.0146894 -38.122402 -7.908699 -2.0557613
        -39.8718 -8.979179 -3.2534885 -41.672756 -10.240724 -4.633009
        -43.499554 -11.727455 -6.2245727 -45.306553 -13.473368 -8.061561
        -47.01909 -15.506121 -10.174332 -48.52565 -17.837017 -12.578047
        -49.676018 -20.44707 -15.253697 -50.291553 -23.270588 -18.12426
        -50.194176 -26.181206 -21.032541 -49.255085 -28.987816 -23.731686
        -47.45479 -31.449383 -25.90154 -44.933247 -33.31328 -27.198223
        -42.002357 -34.371456 -27.329494 -39.102345 -34.515675 -26.130573
        -36.709736 -33.768143 -23.6071 -35.231583 -32.272835 -19.924606
        -0.089357376 -0.4034443 0.13163376 -0.031030655 -0.4202671 0.14216423
        0.019251823 -0.42502403 0.16881847 0.05771637 -0.4207754 0.20528698
        0.083732605 -0.4108448 0.24578905 0.09868336 -0.39804935 0.28598738
        0.10489273 -0.38447332 0.3231268 -9.164116 -0.67065 3.390488
        -9.489165 -0.68659544 3.4715679 -9.824925 -0.70358056 3.5527244
        -10.171846 -0.7217259 3.6337254 -10.530437 -0.74116814 3.7143164
        -10.901276 -0.76206213 3.7942147 -11.285017 -0.7845837 3.8731062
        -11.682408 -0.8089319 3.9506378 -12.094294 -0.83533293 4.026408
        -12.521632 -0.864043 4.099958 -12.965503 -0.8953531 4.1707587
        -13.427121 -0.92959315 4.238196 -13.907845 -0.96713805 4.3015547
        -14.409182 -1.0084133 4.3599977 -14.932802 -1.0539019 4.412545
        -15.480535 -1.1041528 4.4580493 -16.054369 -1.1597896 4.4951754
        -16.65645 -1.2215208 4.5223694 -17.289085 -1.2901534 4.537842
        -17.954718 -1.3666055 4.5395403 -18.655928 -1.451926 4.5251317
        -19.39543 -1.5473151 4.4919844 -20.176067 -1.6541512 4.437152
        -21.00082 -1.7740258 4.357352 -21.872816 -1.9087886 4.2489386
        -22.795357 -2.0605938 4.107866 -23.771948 -2.2319849 3.9296207
        -24.806318 -2.425974 3.7091336 -25.902428 -2.6461585 3.4406667
        -27.064442 -2.8968635 3.117667 -28.296682 -3.1833236 2.7326274
        -29.60354 -3.5119128 2.2769294 -30.989388 -3.8904476 1.7407018
        -32.458504 -4.3285728 1.1126354 -34.015007 -4.8382654 0.3797015
        -35.662804 -5.434471 -0.47335505 -37.405212 -6.135861 -1.4649069
        -39.244167 -6.965652 -2.6178155 -41.178123 -7.952332 -3.961245
        -43.198074 -9.129931 -5.5325413 -45.280712 -10.537251 -7.3781304
        -47.37832 -12.215079 -9.551658 -49.40605 -14.200173 -12.106624
        -51.229576 -16.51465 -15.080645 -52.658867 -19.150074 -18.469383
        -53.457413 -22.04757 -22.191826 -53.376534 -25.078701 -26.055061
        -52.219574 -28.036552 -29.734524 -49.926926 -30.649097 -32.791416
        -46.652313 -32.622925 -34.74183 -42.787712 -33.711987 -35.16964
        -38.90557 -33.78778 -33.843784 -35.627632 -32.87878 -30.785301
        -33.473568 -31.158733 -26.249323 -32.754852 -28.89036 -20.632639
        -0.04533291 -0.37469673 0.0735569 0.01646614 -0.38704395 0.1059866
        0.06287575 -0.388875 0.15123272 0.09349346 -0.38389778 0.20136356
        0.11045647 -0.37524223 0.25065613 0.11691856 -0.3651662 0.2956915
        -9.204121 -0.59859276 3.4078603 -9.531009 -0.6114514 3.4887526
        -9.868743 -0.6251525 3.5696564 -10.21779 -0.63979346 3.6503363
        -10.578675 -0.6554847 3.7305336 -10.951999 -0.67235154 3.8099618
        -11.338439 -0.690536 3.8883023 -11.738766 -0.71019953 3.965195
        -12.153855 -0.731525 4.0402327 -12.584699 -0.75472033 4.1129484
        -13.032416 -0.7800217 4.182803 -13.498264 -0.80769706 4.2491713
        -13.983654 -0.8380515 4.3113213 -14.490149 -0.87143165 4.368396
        -15.019486 -0.9082317 4.419392 -15.573566 -0.94890016 4.463133
        -16.154467 -0.9939478 4.498243 -16.76443 -1.0439565 4.523125
        -17.405869 -1.0995897 4.535931 -18.08136 -1.1616055 4.534541
        -18.79363 -1.2308716 4.516538 -19.54557 -1.3083844 4.479192
        -20.340221 -1.3952932 4.419435 -21.180807 -1.4929298 4.3338375
        -22.070751 -1.6028506 4.2185807 -23.0137 -1.7268751 4.0693984
        -24.013594 -1.8671649 3.881504 -25.074688 -2.0262957 3.6494865
        -26.201597 -2.2073636 3.367168 -27.399292 -2.414118 3.027433
        -28.67311 -2.6511338 2.6220388 -30.028698 -2.9240332 2.141403
        -31.472023 -3.2397804 1.5743799 -33.009388 -3.6070688 0.9079448
        -34.647495 -4.0368357 0.1267308 -36.393494 -4.542924 -0.7877846
        -38.254807 -5.1429033 -1.8585913 -40.23826 -5.8590136 -3.115148
        -42.347843 -6.719095 -4.5960135 -44.580105 -7.7572107 -6.3517103
        -46.91588 -9.013376 -8.4466095 -49.30765 -10.531425 -10.957558
        -51.662804 -12.353642 -13.965696 -53.825996 -14.510546 -17.537264
        -55.56734 -17.004509 -21.689852 -56.588623 -19.787937 -26.344816
        -56.561813 -22.740469 -31.275158 -55.2097 -25.65538 -36.07098
        -52.420307 -28.249798 -40.15493 -48.35637 -30.210087 -42.873558
        -43.49804 -31.268723 -43.65774 -38.569542 -31.285524 -42.194733
        -34.35975 -30.293957 -38.527355 -31.514498 -28.486687 -33.025352
        -30.39664 -26.149399 -26.247007 -0.06968689 -0.30682373 0.017309189
        0.0051956177 -0.33001328 0.05237198 0.06094551 -0.3412676 0.10421848
        0.09728813 -0.3443451 0.162426 0.11719418 -0.34253407 0.2196598
        0.12469959 -0.33821964 0.2716632 -9.236556 -0.5248469 3.4225724
        -9.564915 -0.53448784 3.5033445 -9.904228 -0.5447639 3.5840786
        -10.254973 -0.5557486 3.6645353 -10.617691 -0.56752497 3.7444534
        -10.992995 -0.5801877 3.8235426 -11.381581 -0.5938441 3.9014807
        -11.784245 -0.608616 3.9779031 -12.20188 -0.6246417 4.0523977
        -12.635509 -0.6420785 4.1244907 -13.086279 -0.6611053 4.193636
        -13.555486 -0.6819252 4.2591968 -14.044575 -0.70476955 4.3204303
        -14.555161 -0.7299018 4.3764644 -15.089027 -0.75762194 4.4262757
        -15.64814 -0.7882716 4.4686627 -16.234638 -0.82224065 4.5022216
        -16.850847 -0.8599738 4.525317 -17.49927 -0.9019794 4.536057
        -18.18258 -0.9488393 4.532264 -18.903637 -1.0012214 4.5114584
        -19.665459 -1.0598949 4.470826 -20.47126 -1.1257492 4.4072037
        -21.324469 -1.1998212 4.3170447 -22.228735 -1.2833183 4.1963844
        -23.188017 -1.3776703 4.0407777 -24.206604 -1.4845749 3.8452144
        -25.289207 -1.6060677 3.604001 -26.440992 -1.7446064 3.3105915
        -27.667631 -1.903186 2.9573944 -28.975336 -2.0854836 2.5355458
        -30.37087 -2.29605 2.0346391 -31.861622 -2.5405674 1.442421
        -33.45573 -2.8261938 0.7443666 -35.162277 -3.1620235 -0.076984644
        -36.991486 -3.5596933 -1.0431159 -38.95468 -4.0341587 -2.1812792
        -41.063522 -4.6046076 -3.5271163 -43.327682 -5.295439 -5.1281595
        -45.749718 -6.13706 -7.047765 -48.315647 -7.166003 -9.368155
        -50.97998 -8.423517 -12.189867 -53.64517 -9.951305 -15.623236
        -56.13834 -11.782696 -19.766253 -58.19335 -13.927803 -24.663408
        -59.45249 -16.352592 -30.24459 -59.507576 -18.955648 -36.254093
        -57.996094 -21.552097 -42.197662 -54.746483 -23.879774 -47.352657
        -49.924767 -25.640818 -50.881805 -44.099285 -26.577242 -52.04683
        -38.15186 -26.553558 -50.444695 -33.045185 -25.604328 -46.144688
        -29.55297 -23.918526 -39.646408 -28.084618 -21.771372 -31.686703
        -13.222353 -9.048054 -10.572479 -0.017543793 -0.25709915 0.017986298
        0.04886818 -0.28034592 0.07184601 0.092344284 -0.29408216 0.13456249
        0.11650276 -0.3014431 0.19698143 0.12628174 -0.30486155 0.25385094
        -9.260448 -0.4497517 3.4338677 -9.589881 -0.45607772 3.514572
        -9.930343 -0.46282423 3.5952017 -10.282324 -0.47004 3.6755166
        -10.646372 -0.47778058 3.7552528 -11.023115 -0.48610893 3.8341184
        -11.41326 -0.49509665 3.9117866 -11.817617 -0.50482494 3.9878917
        -12.237101 -0.5153864 4.062016 -12.672748 -0.526886 4.1336827
        -13.12573 -0.53944343 4.202339 -13.597365 -0.55319476 4.2673416
        -14.089134 -0.5682952 4.327939 -14.602678 -0.58492136 4.383247
        -15.139824 -0.60327494 4.4322286 -15.702575 -0.62358576 4.473665
        -16.293123 -0.64611644 4.506131 -16.91385 -0.6711672 4.5279636
        -17.567327 -0.69908154 4.5372376 -18.2563 -0.73025346 4.531737
        -18.983713 -0.76513624 4.508931 -19.752697 -0.8042528 4.465949
        -20.56659 -0.8482097 4.399556 -21.428963 -0.89771605 4.3061185
        -22.343649 -0.95359826 4.1815643 -23.314823 -1.0168403 4.0213165
        -24.347057 -1.0886132 3.820199 -25.445395 -1.1703256 3.5723019
        -26.615429 -1.2636863 3.2708068 -27.86337 -1.370784 2.9077625
        -29.196106 -1.494196 2.473829 -30.621275 -1.6371272 1.9579688
        -32.14739 -1.8036009 1.3470726 -33.78405 -1.998715 0.6254351
        -35.54227 -2.2289927 -0.2260549 -37.434788 -2.5028403 -1.231253
        -39.476177 -2.8311515 -2.420866 -41.682205 -3.228032 -3.835622
        -44.067474 -3.7116146 -5.53052 -46.639977 -4.304777 -7.579755
        -49.390816 -5.035433 -10.080888 -52.27734 -5.93573 -13.155195
        -55.19948 -7.0391493 -16.939247 -57.97154 -8.37403 -21.56057
        -60.298416 -9.952288 -27.090319 -61.772583 -11.752932 -33.47023
        -61.91604 -13.702966 -40.423775 -60.289246 -15.66304 -47.38471
        -56.663895 -17.430046 -53.499847 -51.2048 -18.768812 -57.761917
        -44.5567 -19.473091 -59.273792 -37.74241 -19.434483 -57.5475
        -31.88037 -18.682419 -52.67874 -27.856197 -17.370098 -45.29139
        -26.116035 -15.716883 -36.289635 -26.65374 -13.941439 -26.56428
        -0.0531559 -0.17656994 0.011901855 0.024801254 -0.2123208 0.06106186
        0.0767498 -0.23774672 0.12284756 0.10668945 -0.2554555 0.18622303
        0.12024593 -0.26769114 0.2447424 -9.275106 -0.37371472 3.441191
        -9.605189 -0.3766614 3.5218647 -9.946349 -0.37980926 3.6024427
        -10.299078 -0.38318214 3.6826837 -10.663934 -0.38680732 3.7623217
        -11.041548 -0.39071572 3.8410635 -11.432637 -0.39494252 3.9185812
        -11.838018 -0.39952788 3.9945068 -12.258618 -0.40451735 4.068421
        -12.695484 -0.40996292 4.139843 -13.149802 -0.41592386 4.2082176
        -13.622907 -0.42246765 4.2728963 -14.116291 -0.42967132 4.3331227
        -14.631621 -0.4376228 4.388006 -15.170743 -0.44642255 4.4365005
        -15.735689 -0.45618525 4.477377 -16.328682 -0.4670424 4.509196
        -16.952133 -0.47914416 4.530279 -17.608656 -0.4926631 4.5386806
        -18.301044 -0.50779724 4.532161 -19.032295 -0.524775 4.5081587
        -19.805603 -0.54386073 4.4637685 -20.624378 -0.56536114 4.3957095
        -21.492287 -0.5896374 4.300297 -22.413273 -0.6171082 4.1733923
        -23.391645 -0.64827573 4.0103364 -24.432148 -0.6837394 3.8058515
        -25.540031 -0.72422075 3.5538952 -26.721157 -0.77059776 3.2474768
        -27.98207 -0.82394576 2.8784215 -29.330084 -0.8855949 2.4370935
        -30.77339 -0.9572021 1.9120563 -32.321217 -1.0408521 1.2896615
        -33.98411 -1.139192 0.5534564 -35.77432 -1.2556148 -0.3167323
        -37.706226 -1.3945059 -1.3462828 -39.796555 -1.5615596 -2.5681562
        -42.063786 -1.7641791 -4.0264 -44.525856 -2.0119152 -5.7809496
        -47.19453 -2.316884 -7.913221 -50.064568 -2.693964 -10.531094
        -53.09572 -3.1604233 -13.770006 -56.18689 -3.7344332 -17.784666
        -59.144726 -4.4316463 -22.723492 -61.655624 -5.2591734 -28.677233
        -63.27906 -6.206734 -35.597645 -63.48961 -7.2363515 -43.196007
        -61.794205 -8.274365 -50.857864 -57.923817 -9.21219 -57.63938
        -52.04057 -9.922738 -62.41298 -44.84091 -10.293573 -64.1677
        -37.44527 -10.265664 -62.354576 -31.080214 -9.856638 -57.0891
        -26.70778 -9.1512575 -49.08505 -24.79728 -8.267989 -39.36642
        -25.3184 -7.324506 -28.930212 -0.09995079 -0.10087872 0.03881836
        -0.010782242 -0.14651346 0.07586861 0.050354004 -0.18223476 0.13040447
        0.087358475 -0.20962167 0.18965626 0.1061306 -0.23039234 0.24595833
        -9.280116 -0.29719424 3.4442043 -9.610415 -0.2967298 3.5248768
        -9.951807 -0.29624495 3.6054468 -10.304785 -0.2957384 3.6856716
        -10.669909 -0.29520896 3.7652862 -11.047811 -0.2946553 3.8439958
        -11.439213 -0.29407597 3.9214728 -11.844934 -0.2934695 3.9973478
        -12.265901 -0.2928343 4.071201 -12.703169 -0.2921687 4.14255
        -13.157927 -0.29147086 4.2108393 -13.631514 -0.2907391 4.275419
        -14.12543 -0.28997132 4.3355303 -14.641347 -0.2891657 4.3902802
        -15.181118 -0.28832015 4.4386196 -15.746784 -0.2874326 4.4793158
        -16.340576 -0.28650108 4.5109253 -16.964924 -0.28552344 4.5317636
        -17.62244 -0.28449798 4.5398784 -18.315947 -0.28342286 4.533021
        -19.048449 -0.2822966 4.5086207 -19.823168 -0.2811182 4.463759
        -20.643536 -0.27988687 4.3951406 -21.513248 -0.27860472 4.2990613
        -22.436287 -0.2772691 4.171362 -23.417004 -0.27588364 4.007355
        -24.460194 -0.27445114 3.8017268 -25.571184 -0.27297586 3.5483894
        -26.755915 -0.27146333 3.2402952 -28.021046 -0.26991946 2.869193
        -29.374027 -0.26835 2.4253464 -30.823227 -0.266759 1.8971844
        -32.378117 -0.2651442 1.2708782 -34.049545 -0.26349342 0.5297235
        -35.85017 -0.2617738 -0.346807 -37.794918 -0.2599205 -1.3846046
        -39.90121 -0.25781557 -2.6173773 -42.188442 -0.25526348 -4.0902886
        -44.67565 -0.25195807 -5.864914 -47.37586 -0.24743539 -8.025089
        -50.285057 -0.24102512 -10.682137 -53.363792 -0.23177442 -13.976221
        -56.510704 -0.21837276 -18.068123 -59.5299 -0.19912514 -23.113224
        -62.10169 -0.17212707 -29.20882 -63.774612 -0.13592485 -36.31003
        -64.00752 -0.090791285 -44.124077 -62.28959 -0.04011187 -52.020416
        -58.3383 0.009319842 -59.024864 -52.314896 0.04896888 -63.969532
        -44.93294 0.071410865 -65.805115 -37.345 0.0724141 -63.96215
        -30.81334 0.05095893 -58.562748 -26.326118 0.011047632 -50.351276
        -24.360312 -0.037532806 -40.39206 -24.877031 -0.08713013 -29.717842
        -0.15283775 -0.043298095 0.096738815 -0.054510117 -0.09314531 0.11559296
        0.015302658 -0.13520952 0.15718079 0.059835434 -0.16958182 0.20747471
        0.084760666 -0.19707108 0.25773144 -9.275342 -0.22067587 3.442795
        -9.605419 -0.21680073 3.523492 -9.946572 -0.21268365 3.604094
        -10.299294 -0.20829825 3.6843586 -10.66414 -0.2036149 3.764021
        -11.041743 -0.19859992 3.842787 -11.432821 -0.1932153 3.920329
        -11.838188 -0.18741797 3.9962788 -12.258771 -0.18115914 4.0702167
        -12.695617 -0.1743835 4.141662 -13.149914 -0.16702837 4.210059
        -13.622992 -0.15902254 4.2747607 -14.116347 -0.15028517 4.335008
        -14.631644 -0.14072444 4.3899117 -15.170727 -0.1302359 4.4384246
        -15.735628 -0.11870073 4.4793177 -16.328568 -0.10598359 4.511151
        -16.95196 -0.09193015 4.5322456 -17.60841 -0.07636435 4.540655
        -18.300718 -0.0590846 4.534139 -19.031872 -0.0398597 4.510136
        -19.805065 -0.018423518 4.4657393 -20.623707 0.0055321325 4.397667
        -21.49146 0.032364104 4.3022323 -22.412262 0.062495627 4.1752973
        -23.390415 0.09642224 4.0122013 -24.430655 0.13473608 3.8076634
        -25.538223 0.17814997 3.555643 -26.718971 0.2275303 3.249148
        -27.979424 0.28393912 2.880005 -29.326874 0.34869277 2.4385767
        -30.769487 0.42343873 1.9134355 -32.316452 0.5102609 1.2909411
        -33.978264 0.61182576 0.5546608 -35.767105 0.7315826 -0.3155465
        -37.69726 0.8740324 -1.3450072 -39.78532 1.0450853 -2.566584
        -42.0496 1.2524979 -4.0241747 -44.507797 1.5063848 -5.7774577
        -47.17139 1.8197051 -7.9074483 -50.034794 2.2085607 -10.521391
        -53.05744 2.691945 -13.753754 -56.138016 3.2903867 -17.757872
        -59.083305 4.022587 -22.68031 -61.580574 4.899056 -28.60972
        -63.191288 5.912088 -35.49611 -63.393517 7.0231705 -43.050495
        -61.698757 8.152527 -50.661232 -57.84224 9.179422 -57.39148
        -51.987316 9.961576 -62.1239 -44.8265 10.373319 -63.857594
        -37.471584 10.34781 -62.048943 -31.139786 9.900854 -56.81149
        -26.788628 9.124784 -48.85123 -24.886545 8.154186 -39.182037
        -25.40533 7.1207666 -28.79256 -0.20412254 -0.013599873 0.17670822
        -0.10065269 -0.060292006 0.17464447 -0.02425003 -0.10303569 0.19970131
        0.027038574 -0.14019394 0.23757267 0.058193207 -0.17136264 0.2787838
        -9.26092 -0.144645 3.4370742 -9.59034 -0.13739195 3.5178254
        -9.930789 -0.12967777 3.5985026 -10.282754 -0.12145128 3.6788657
        -10.646785 -0.11265448 3.75865 -11.023506 -0.10322176 3.8375635
        -11.413628 -0.09307878 3.9152806 -11.817956 -0.082141265 3.9914336
        -12.237407 -0.07031373 4.065606 -12.673016 -0.057487674 4.1373196
        -13.125954 -0.043540146 4.2060213 -13.597539 -0.02833139 4.2710686
        -14.089249 -0.011702633 4.3317084 -14.602727 0.0065267733 4.3870564
        -15.139793 0.026562167 4.436075 -15.702456 0.04863758 4.4775453
        -16.2929 0.073019266 4.51004 -16.913507 0.10001118 4.5318956
        -17.566843 0.12996039 4.541186 -18.255653 0.16326398 4.5356936
        -18.982874 0.20037761 4.5128865 -19.751637 0.24182603 4.4698915
        -20.565266 0.28821594 4.403473 -21.42733 0.34025243 4.309993
        -22.341652 0.3987651 4.1853786 -23.312393 0.46472967 4.0250516
        -24.344109 0.53930944 3.8238316 -25.441828 0.623902 3.5758095
        -26.611116 0.7202016 3.2741623 -27.858154 0.83028096 2.910942
        -29.189787 0.95669806 2.4768124 -30.613598 1.1026402 1.9607446
        -32.13803 1.2721195 1.3496503 -33.7726 1.4702375 0.6278603
        -35.528168 1.7035458 -0.2236799 -37.417305 1.98053 -1.228718
        -39.45434 2.3122337 -2.4177885 -41.654736 2.7130282 -3.8313305
        -44.032646 3.2014604 -5.5238795 -46.595566 3.8010352 -7.5688844
        -49.334 4.5405636 -10.062752 -52.204758 5.4534397 -13.125031
        -55.10745 6.5748196 -16.889833 -57.856773 7.935196 -21.481483
        -60.159306 9.548861 -26.967567 -61.61123 11.39659 -33.28693
        -61.740707 13.404928 -40.16285 -60.1162 15.430168 -47.03424
        -56.51651 17.260748 -53.060024 -51.108276 18.651087 -57.250526
        -44.52928 19.385826 -58.725674 -37.787792 19.350828 -57.006557
        -31.986622 18.574139 -52.185875 -28.00191 17.213715 -44.874176
        -26.27789 15.498703 -35.95855 -26.81248 13.657707 -26.315325
        -0.24583244 -0.014715195 0.26554298 -0.14261246 -0.05142498 0.24397278
        -0.063150406 -0.08905077 0.2519865 -0.0071048737 -0.12434721 0.27602577
        0.029317856 -0.15561628 0.30657387 -9.237262 -0.069560036 3.4273787
        -9.565604 -0.05899435 3.5082216 -9.904898 -0.047753163 3.5890265
        -10.25562 -0.03576075 3.669555 -10.61831 -0.02293141 3.749545
        -10.993582 -0.00916798 3.8287072 -11.382133 0.0056395493 3.9067173
        -11.784752 0.021615904 3.983212 -12.20234 0.0389025 4.057778
        -12.635913 0.057659745 4.1299415 -13.086618 0.0780698 4.1991553
        -13.555749 0.10033935 4.264783 -14.044753 0.12470341 4.326081
        -14.555238 0.15142891 4.382175 -15.088991 0.1808195 4.432042
        -15.647969 0.21322067 4.4744797 -16.234314 0.2490257 4.5080824
        -16.850346 0.28868294 4.531213 -17.49856 0.3327036 4.541978
        -18.18163 0.38167232 4.538199 -18.902403 0.4362589 4.5173917
        -19.663893 0.49723327 4.476742 -20.469309 0.5654848 4.413082
        -21.322067 0.64204514 4.3228626 -22.225798 0.72812283 4.2021155
        -23.18444 0.8251387 4.0463934 -24.20227 0.93478 3.8506818
        -25.28397 1.0590681 3.6092842 -26.434668 1.2004431 3.3156524
        -27.659996 1.3618776 2.9621987 -28.966103 1.547022 2.5400622