<?xml version="1.0"?>
<VTKFile type="StructuredGrid" version="0.1" byte_order="LittleEndian" header_type="UInt32" compressor="vtkZLibDataCompressor">
  <StructuredGrid WholeExtent="0 60 0 20 0 20">
  <Piece Extent="0 60 0 20 0 20">
    <PointData Vectors="B_total">
      <DataArray type="Float32" Name="B_total" NumberOfComponents="3" format="ascii" RangeMin="0" RangeMax="56046.21552908029">
        -8.485265 -0.7125914 3.377389 -8.790478 -0.7338922 3.4600174
        -9.105772 -0.75706637 3.543151 -9.431521 -0.7823396 3.6266236
        -9.768149 -0.8099649 3.7102575 -10.11613 -0.84022623 3.7938576
        -10.476 -0.8734423 3.8772113 -10.848368 -0.90997106 3.9600835
        -11.233922 -0.95021534 4.0422106 -11.63344 -0.9946284 4.1232934
        -12.047799 -1.0437212 4.202991 -12.477981 -1.0980698 4.2809052
        -12.925078 -1.1583236 4.356573 -13.390306 -1.2252164 4.429448
        -13.874995 -1.2995746 4.498886 -14.380588 -1.3823308 4.5641265
        -14.908637 -1.4745342 4.6242723 -15.46079 -1.5773638 4.6782722
        -16.038761 -1.6921427 4.7249017 -16.64432 -1.8203493 4.7627506
        -17.279242 -1.9636335 4.790209 -17.945288 -2.1238303 4.805465
        -18.644152 -2.3029752 4.806508 -19.37744 -2.5033247 4.791131
        -20.146622 -2.7273765 4.7569447 -20.953007 -2.9778984 4.701394
        -21.797714 -3.257965 4.621743 -22.681637 -3.571002 4.5150967
        -23.605375 -3.9208364 4.3783655 -24.569155 -4.311757 4.208248
        -25.572676 -4.748571 4.0012174 -26.614922 -5.236651 3.7535393
        -27.693918 -5.7819734 3.4613423 -28.806517 -6.3911424 3.1207838
        -29.948229 -7.0713987 2.7282557 -31.113165 -7.830641 2.2806246
        -32.29412 -8.677445 1.7753986 -33.482697 -9.62108 1.2107083
        -34.669334 -10.67146 0.58505106 -35.842964 -11.838877 -0.10321307
        -36.99012 -13.133326 -0.8563869 -38.093285 -14.5631 -1.677604
        -39.12884 -16.13235 -2.5700526 -40.065483 -17.837553 -3.5347352
        -40.86437 -19.66308 -4.566657 -41.48263 -21.5769 -5.6500335
        -41.881065 -23.527805 -6.753842 -42.03546 -25.44615 -7.829666
        -41.949436 -27.249714 -8.813402 -41.66463 -28.854929 -9.631647
        -41.264282 -30.192078 -10.211741 -40.867065 -31.220701 -10.492907
        -0.068397045 -0.35116863 0.40541363 -0.060950067 -0.36357498 0.3936839
        -0.04910159 -0.37362766 0.38557053 -0.034544945 -0.38036156 0.3817234
        -0.019102573 -0.38346577 0.38211203 -0.004345417 -0.38319588 0.3861723
        0.008594513 -0.38012695 0.39305663 0.01911354 -0.37504005 0.40179896
        0.02703762 -0.36869383 0.4115162 -8.550072 -0.6979762 3.4428577
        -8.859194 -0.7186607 3.526042 -9.178714 -0.7411183 3.609598
        -9.50904 -0.76555485 3.6933484 -9.850629 -0.7922012 3.7771032
        -10.203996 -0.8213162 3.860657 -10.569723 -0.8531906 3.9437838
        -10.948471 -0.88815117 4.026235 -11.340987 -0.92656606 4.107732
        -11.748118 -0.96885014 4.1879573 -12.170819 -1.0154723 4.2665477
        -12.61016 -1.0669621 4.34308 -13.067342 -1.123919 4.4170575
        -13.543693 -1.1870217 4.487893 -14.040676 -1.2570386 4.55489
        -14.55989 -1.3348391 4.6172214 -15.103055 -1.4214071 4.6739073
        -15.672008 -1.517853 4.723794 -16.268675 -1.6254289 4.765532
        -16.895048 -1.7455432 4.7975574 -17.553164 -1.8797761 4.8180795
        -18.245045 -2.0298975 4.8250756 -18.972685 -2.197885 4.816288
        -19.738003 -2.3859482 4.789237 -20.542814 -2.5965557 4.7412214
        -21.388815 -2.8324702 4.669343 -22.27755 -3.0967965 4.570482
        -23.210396 -3.3930354 4.4413137 -24.188509 -3.725157 4.2782564
        -25.21274 -4.0976777 4.0774364 -26.283474 -4.515746 3.8346496
        -27.400423 -4.985225 3.5453606 -28.562359 -5.5127716 3.2047763
        -29.766844 -6.1059084 2.8080082 -31.010046 -6.773109 2.3503046
        -32.286682 -7.52389 1.8273115 -33.590073 -8.368938 1.2352087
        -34.912292 -9.320254 0.57062674 -36.24408 -10.391219 -0.16979957
        -37.574253 -11.596433 -0.990186 -38.888203 -12.951024 -1.8961916
        -40.165268 -14.469003 -2.8952687 -41.37533 -16.16019 -3.9955115
        -42.475777 -18.025465 -5.202278 -43.410866 -20.050512 -6.512317
        -44.115852 -22.199173 -7.906205 -44.52751 -24.408497 -9.341169
        -44.60081 -26.588291 -10.747293 -44.328445 -28.62801 -12.030005
        -43.757366 -30.411743 -13.080316 -42.99534 -31.839506 -13.791412
        -42.20266 -32.849373 -14.077202 -41.569347 -33.43345 -13.886679
        -0.073988914 -0.35438728 0.36015034 -0.058912754 -0.36756802 0.3501997
        -0.04038477 -0.37673283 0.34628487 -0.020955086 -0.3814373 0.34821415
        -0.0027456284 -0.38200188 0.3550372 0.012828827 -0.37920284 0.36541128
        0.025099754 -0.37403774 0.3779297 0.033973217 -0.36744595 0.3913684
        -8.620103 -0.6796871 3.5070515 -8.933123 -0.69932044 3.5907273
        -9.256838 -0.7205923 3.6746411 -9.591682 -0.74368733 3.7586052
        -9.938145 -0.76881236 3.8424196 -10.296778 -0.79619956 3.9258664
        -10.668205 -0.8261094 4.008709 -11.053136 -0.8588354 4.090684
        -11.452372 -0.89470816 4.171498 -11.866823 -0.93410134 4.250818
        -12.297518 -0.9774374 4.328258 -12.745612 -1.0251951 4.40337
        -13.212401 -1.0779178 4.475625 -13.699327 -1.136222 4.5443945
        -14.207977 -1.2008086 4.6089315 -14.740095 -1.2724733 4.668342
        -15.297565 -1.3521196 4.7215652 -15.882402 -1.4407724 4.767344
        -16.49674 -1.5395918 4.8042026 -17.1428 -1.64989 4.830424
        -17.822851 -1.7731466 4.8440332 -18.5392 -1.911029 4.8427935
        -19.294132 -2.065413 4.824197 -20.08989 -2.2384086 4.785476
        -20.928652 -2.4323936 4.7236156 -21.812515 -2.650053 4.6353407
        -22.743496 -2.8944347 4.5171394 -23.723501 -3.1690173 4.3652167
        -24.754314 -3.4777944 4.17545 -25.83751 -3.8253732 3.9433284
        -26.974285 -4.217086 3.6638799 -28.16526 -4.6591063 3.3316493
        -29.410172 -5.158578 2.9407609 -30.70759 -5.7237415 2.4850607
        -32.054733 -6.3641014 1.9583802 -33.447403 -7.090626 1.3547692
        -34.8801 -7.9160147 0.6685927 -36.34614 -8.855004 -0.10571074
        -37.83751 -9.924636 -0.9743345 -39.34392 -11.144282 -1.9452329
        -40.850597 -12.535046 -3.0293233 -42.334274 -14.117994 -4.240904
        -43.757908 -15.910509 -5.59608 -45.065495 -17.920244 -7.1078486
        -46.179886 -20.136692 -8.777345 -47.007195 -22.521534 -10.58217
        -47.450775 -25.000526 -12.464853 -47.434883 -27.46096 -14.326189
        -46.93399 -29.759117 -16.028374 -45.99886 -31.739986 -17.410904
        -44.768017 -33.26664 -18.317368 -43.456554 -34.251556 -18.625837
        -42.322136 -34.679092 -18.272253 -41.61811 -34.610683 -17.25774
        -0.072245836 -0.35084724 0.30994415 -0.048876762 -0.36389923 0.30568504
        -0.024569988 -0.37150574 0.3094225 -0.0021605492 -0.37405586 0.3196187
        0.01657486 -0.37254238 0.33425713 0.030896664 -0.3681717 0.35134554
        0.040858746 -0.36209965 0.3692131 -8.692623 -0.6559608 3.5684736
        -9.009428 -0.6741152 3.6526163 -9.337195 -0.6937457 3.7368722
        -9.676386 -0.7150146 3.8210452 -10.027518 -0.7381038 3.904924
        -10.391176 -0.7632172 3.9882817 -10.768023 -0.7905842 4.0708704
        -11.15881 -0.820463 4.152415 -11.56439 -0.85314506 4.2326093
        -11.985732 -0.8889602 4.311103 -12.42393 -0.9282818 4.387493
        -12.880218 -0.9715342 4.461306 -13.35598 -1.0191996 4.531984
        -13.852757 -1.071827 4.5988607 -14.372262 -1.1300418 4.6611395
        -14.916365 -1.1945562 4.717866 -15.487104 -1.2661822 4.7679014
        -16.086668 -1.3458433 4.8098917 -16.71738 -1.4345895 4.84224
        -17.381672 -1.533613 4.8630834 -18.082056 -1.6442652 4.8702707
        -18.821096 -1.7680757 4.8613567 -19.601368 -1.9067762 4.8335905
        -20.425434 -2.0623276 4.783926 -21.295841 -2.2369545 4.709029
        -22.2151 -2.43319 4.6052647 -23.185703 -2.653938 4.4687076
        -24.210133 -2.9025443 4.295087 -25.290838 -3.182895 4.0797186
        -26.430182 -3.499529 3.8174114 -27.630281 -3.8577702 3.5023718
        -28.89279 -4.263877 3.1281376 -30.218613 -4.7252073 2.6876209
        -31.607601 -5.250418 2.173239 -33.0584 -5.8497057 1.5771484
        -34.56841 -6.5351305 0.89144516 -36.13399 -7.321042 0.1081512
        -37.750618 -8.22459 -0.78125024 -39.412643 -9.26625 -1.786905
        -41.11202 -10.470117 -2.9222584 -42.835148 -11.863552 -4.205838
        -44.55726 -13.475455 -5.662031 -46.234573 -15.332232 -7.319054
        -47.79609 -17.450556 -9.202172 -49.13881 -19.826612 -11.321043
        -50.131866 -22.422928 -13.652162 -50.634087 -25.15605 -16.120762
        -50.526764 -27.890743 -18.589127 -49.75647 -30.447336 -20.85989
        -48.3751 -32.626434 -22.699728 -46.55935 -34.24848 -23.881626
        -44.59577 -35.19711 -24.233828 -42.83042 -35.449883 -23.677027
        -41.59951 -35.084198 -22.23468 -5.80641 -5.0414553 -2.5538263
        -0.061757088 -0.33817673 0.26264763 -0.03148651 -0.35067272 0.2679186
        -0.0039434433 -0.35698128 0.2816944 0.018642426 -0.35828018 0.3010664
        0.035485268 -0.35604382 0.32325125 0.046816826 -0.35162544 0.34603786
        -8.76447 -0.625774 3.6256812 -9.084834 -0.6420524 3.7102885
        -9.416398 -0.65962297 3.7948997 -9.759648 -0.67862517 3.8793101
        -10.115126 -0.6992149 3.9633005 -10.483445 -0.7215674 4.046635
        -10.865304 -0.7458798 4.1290565 -11.261492 -0.7723742 4.2102804
        -11.672907 -0.8013016 4.2899885 -12.100569 -0.8329462 4.3678174
        -12.545632 -0.86763036 4.4433465 -13.0094 -0.9057211 4.5160837
        -13.493338 -0.9476363 4.5854425 -13.999078 -0.9938524 4.650724
        -14.528438 -1.0449134 4.711089 -15.083409 -1.1014411 4.7655277
        -15.666167 -1.1641451 4.8128314 -16.279058 -1.2338357 4.8515573
        -16.924576 -1.311437 4.88 -17.605354 -1.3980017 4.896163
        -18.324123 -1.4947277 4.897736 -19.08369 -1.6029778 4.8820796
        -19.886902 -1.7243015 4.8462205 -20.736635 -1.8604631 4.786851
        -21.635786 -2.013479 4.7003403 -22.587273 -2.1856592 4.582709
        -23.594069 -2.3796747 4.4296365 -24.659225 -2.598631 4.2363853
        -25.785881 -2.846171 3.9977162 -26.97721 -3.1265943 3.7077584
        -28.236301 -3.4450052 3.3598757 -29.565937 -3.8074815 2.9465709
        -30.968313 -4.221277 2.4594793 -32.444786 -4.695067 1.8894761
        -33.995728 -5.2392726 1.2268665 -35.620617 -5.8664923 0.4615035
        -37.318333 -6.5920787 -0.41740918 -39.0874 -7.4348707 -1.4220777
        -40.92572 -8.417983 -2.5677505 -42.828968 -9.569456 -3.8751004
        -44.7864 -10.922254 -5.372855 -46.773354 -12.512812 -7.0991397
        -48.74024 -14.376907 -9.099177 -50.600277 -16.54157 -11.416308
        -52.221046 -19.012226 -14.07436 -53.427048 -21.755905 -17.052294
        -54.020927 -24.684063 -20.25642 -53.827133 -27.64231 -23.500834
        -52.752464 -30.416428 -26.509361 -50.84587 -32.761887 -28.949593
        -48.33018 -34.45471 -30.49741 -45.582607 -35.348846 -30.91364
        -43.061752 -35.416946 -30.10212 -41.206543 -34.756527 -28.12328
        -40.346886 -33.55995 -25.158838 -0.0814085 -0.296463 0.2223568
        -0.043899536 -0.31642532 0.22780418 -0.010017395 -0.32881546 0.24451351
        0.0173769 -0.3349743 0.2683754 0.037438393 -0.33659744 0.29563332
        0.050644875 -0.33529663 0.32337427 -8.832301 -0.5888209 3.6772606
        -9.155888 -0.6028732 3.762332 -9.490882 -0.61801773 3.8473153
        -9.837788 -0.6343707 3.9319994 -10.197169 -0.6520619 4.0161586
        -10.569666 -0.67123735 4.09955 -10.956005 -0.6920614 4.181909
        -11.35701 -0.71471936 4.2629433 -11.773619 -0.73942083 4.3423247
        -12.206894 -0.7664035 4.419679 -12.658044 -0.79593736 4.4945726
        -13.128431 -0.8283299 4.566495 -13.619589 -0.8639318 4.634838
        -14.133234 -0.9031439 4.6988754 -14.671272 -0.94642466 4.757729
        -15.235805 -0.99429846 4.8103437 -15.829123 -1.047366 4.8554506
        -16.453712 -1.106314 4.8915305 -17.112223 -1.1719279 4.9167857
        -17.807459 -1.2451053 4.9291015 -18.54235 -1.3268712 4.9260283
        -19.31992 -1.4183948 4.9047585 -20.143267 -1.5210121 4.8621225
        -21.015554 -1.6362518 4.7945833 -21.939997 -1.76587 4.698242
        -22.9199 -1.9118911 4.568812 -23.958698 -2.076672 4.4016085
        -25.059982 -2.2629752 4.1914654 -26.227562 -2.4740672 3.932621
        -27.465412 -2.7138405 3.6185582 -28.77758 -2.9869611 3.2418318
        -30.167992 -3.2990487 2.7939327 -31.6402 -3.6568964 2.2652326
        -33.197166 -4.0687485 1.645051 -34.84121 -4.5446773 0.92176795
        -36.57421 -5.0970926 0.08281946 -38.39807 -5.74144 -0.88572145
        -40.315105 -6.497097 -2.0003278 -42.327824 -7.388419 -3.2822914
        -44.436962 -8.445713 -4.7610397 -46.63639 -9.705679 -6.477847
        -48.903427 -11.21039 -8.488133 -51.18425 -13.003478 -10.859061
        -53.376793 -15.121748 -13.65825 -55.317116 -17.581 -16.930454
        -56.77922 -20.356201 -20.662172 -57.49926 -23.359715 -24.74106
        -57.23118 -26.425896 -28.924507 -55.829353 -29.314526 -32.838017
        -53.334427 -31.743668 -36.021423 -50.02249 -33.45101 -38.02378
        -46.380806 -34.265278 -38.51914 -43.00482 -34.15688 -37.39383
        -40.455124 -33.243935 -34.763607 -39.135227 -31.75219 -30.914982
        -6.2327213 -4.887184 -3.9378033 -0.06442642 -0.26790333 0.19527626
        -0.022737503 -0.28892708 0.21284866 0.010745049 -0.3021822 0.23984623
        0.0350523 -0.3096056 0.27123165 0.05094433 -0.3130331 0.30325603
        -8.892869 -0.5454108 3.721841 -9.219242 -0.55694234 3.8073568
        -9.557195 -0.56935495 3.8927119 -9.907247 -0.5827411 3.9776897
        -10.269981 -0.59720457 4.06206 -10.646061 -0.6128619 4.1455736
        -11.036235 -0.62984437 4.2279615 -11.441356 -0.6483001 4.3089237
        -11.862392 -0.66839695 4.3881264 -12.300449 -0.69032514 4.465185
        -12.756773 -0.7143011 4.539656 -13.232779 -0.7405716 4.6110144
        -13.73006 -0.7694186 4.678636 -14.250398 -0.80116445 4.74177
        -14.795776 -0.8361785 4.79951 -15.368384 -0.8748839 4.850761
        -15.970618 -0.91776615 4.8942056 -16.605074 -0.9653815 4.928263
        -17.274534 -1.018367 4.9510574 -17.98195 -1.077453 4.96038
        -18.73042 -1.1434746 4.9536633 -19.523157 -1.2173889 4.927963
        -20.363474 -1.3002918 4.879943 -21.254782 -1.3934429 4.8058734
        -22.200588 -1.4982967 4.7016325 -23.204533 -1.6165363 4.5626664
        -24.27046 -1.7501345 4.38398 -25.402466 -1.9014179 4.1600313
        -26.604956 -2.0731568 3.8845973 -27.882647 -2.2686777 3.5505834
        -29.240486 -2.4920013 3.149813 -30.683485 -2.7480164 2.6728516
        -32.216496 -3.042695 2.1088986 -33.844086 -3.3833764 1.4458015
        -35.570553 -3.7791536 0.6700778 -37.400314 -4.241413 -0.2332375
        -39.33852 -4.7845736 -1.2812941 -41.39169 -5.4270673 -2.4950747
        -43.56755 -6.1925163 -3.9024189 -45.87289 -7.1109543 -5.5424013
        -48.30754 -8.219637 -7.470392 -50.852566 -9.562566 -9.761574
        -53.451904 -11.187298 -12.508854 -55.989822 -13.137081 -15.809373
        -58.271194 -15.436563 -19.73505 -60.01715 -18.070635 -24.285748
        -60.891006 -20.959545 -29.332943 -60.56627 -23.939241 -34.57257
        -58.834164 -26.761354 -39.516502 -55.7213 -29.126732 -43.552177
        -51.561474 -30.753193 -46.07508 -46.96681 -31.456589 -46.65532
        -42.68814 -31.208405 -45.162685 -39.420666 -30.141125 -41.78699
        -37.64318 -28.499905 -36.947006 -37.552128 -26.56818 -31.141676
        -0.09549427 -0.2073803 0.17795181 -0.044351578 -0.23902416 0.19252777
        -0.0032367706 -0.2612648 0.21981525 0.026640892 -0.27614212 0.25325966
        0.046307564 -0.28569746 0.28803253 -8.943279 -0.49633515 3.7581513
        -9.2719145 -0.50511044 3.844063 -9.612264 -0.5145477 3.9297597
        -9.964863 -0.524716 4.015021 -10.330308 -0.5356929 4.099612
        -10.709277 -0.5475652 4.1832814 -11.102542 -0.5604312 4.265754
        -11.510975 -0.57440156 4.346728 -11.935572 -0.5896019 4.4258614
        -12.377463 -0.60617447 4.5027647 -12.837935 -0.6242818 4.5769863
        -13.318443 -0.6441089 4.6479907 -13.820622 -0.6658673 4.7151403
        -14.346309 -0.68979955 4.7776666 -14.897549 -0.71618336 4.8346405
        -15.4766 -0.7453376 4.8849387 -16.085938 -0.77762836 4.9272046
        -16.728252 -0.8134757 4.95981 -17.406431 -0.853362 4.9808187
        -18.123543 -0.8978404 4.987949 -18.882812 -0.9475453 4.9785423
        -19.687616 -1.0032052 4.9495473 -20.541441 -1.0656568 4.897498
        -21.447895 -1.1358663 4.8185177 -22.410725 -1.2149473 4.708291
        -23.433859 -1.3042027 4.5620685 -24.521477 -1.405161 4.3745995
        -25.678099 -1.5196356 4.1400337 -26.90864 -1.6497973 3.8517718
        -28.218447 -1.7982688 3.5022364 -29.613241 -1.9682418 3.0826406
        -31.098972 -2.1636255 2.5827625 -32.681664 -2.389237 1.9908018
        -34.36731 -2.6510537 1.2933238 -36.16206 -2.956567 0.47519398
        -38.072697 -3.3152754 -0.48074126 -40.107513 -3.7393723 -1.5946312
        -42.277145 -4.244671 -2.8917682 -44.59455 -4.8517504 -4.4063463
        -47.072777 -5.5872107 -6.1869793 -49.718155 -6.4846697 -8.303186
        -52.516594 -7.584765 -10.850364 -55.411667 -8.932791 -13.948178
        -58.27655 -10.57215 -17.725544 -60.888092 -12.531597 -22.284998
        -62.917213 -14.805267 -27.644386 -63.955254 -17.32792 -33.663357
        -63.593178 -19.953684 -39.97773 -61.55462 -22.453188 -45.981415
        -57.84784 -24.544048 -50.898457 -52.863724 -25.957003 -53.957626
        -47.34276 -26.516548 -54.61685 -42.195717 -26.198734 -52.73215
        -38.252945 -25.135118 -48.58 -36.06308 -23.562546 -42.72728
        -35.820885 -21.747755 -35.827377 -0.13824081 -0.14134026 0.18316078
        -0.07616997 -0.1839056 0.18924141 -0.025892258 -0.2157526 0.21257591
        0.010997772 -0.23883677 0.24486542 0.03571415 -0.2552762 0.27994537
        -8.981172 -0.4427365 3.7851007 -9.311474 -0.44857982 3.8713272
        -9.65359 -0.45486107 3.9573011 -10.008062 -0.46162578 4.0427995
        -10.375499 -0.46892515 4.1275854 -10.756592 -0.47681665 4.2114043
        -11.152122 -0.4853651 4.293979 -11.562982 -0.4946438 4.3750033
        -11.990185 -0.5047359 4.4541326 -12.434883 -0.5157356 4.530974
        -12.898388 -0.5277508 4.6050673 -13.382181 -0.5409039 4.6758733
        -13.887934 -0.55533576 4.742743 -14.41752 -0.5712073 4.804896
        -14.973028 -0.58870333 4.861388 -15.55677 -0.6080362 4.9110737
        -16.171276 -0.62944996 4.952571 -16.819305 -0.65322495 4.984217
        -17.503819 -0.6796832 5.0040345 -18.22797 -0.7091951 5.009688
        -18.995089 -0.7421858 4.998456 -19.808655 -0.7791442 4.967208
        -20.672285 -0.8206336 4.9123874 -21.589743 -0.86730605 4.8300085
        -22.564949 -0.919914 4.7156277 -23.602043 -0.9793417 4.564343
        -24.705467 -1.0466305 4.370715 -25.880049 -1.12302 4.128676
        -27.1311 -1.2100013 3.8313384 -28.464445 -1.3093833 3.4707673
        -29.886395 -1.4233793 3.0377152 -31.403633 -1.5547148 2.5213618
        -33.023094 -1.70677 1.9091424 -34.751926 -1.8837701 1.186625
        -36.597748 -2.0910528 0.33737445 -38.569305 -2.3354442 -0.6575167
        -40.6775 -2.6257918 -1.8206563 -42.93643 -2.9736786 -3.1809087
        -45.36357 -3.3943355 -4.7778363 -47.977417 -3.9076617 -6.6682024
        -50.790207 -4.5391355 -8.933752 -53.79268 -5.3200445 -11.687593
        -56.92916 -6.286049 -15.073276 -60.064934 -7.472539 -19.248583
        -62.954597 -8.905075 -24.344975 -65.2275 -10.583666 -30.39907
        -66.413414 -12.462456 -37.263474 -66.03055 -14.431389 -44.52317
        -63.740852 -16.31245 -51.4666 -59.533943 -17.883427 -57.168285
        -53.84979 -18.931082 -60.702457 -47.543053 -19.316935 -61.423706
        -41.666466 -19.024334 -59.178253 -37.167774 -18.161165 -54.327564
        -34.652184 -16.917358 -47.57826 -34.30665 -15.502734 -39.725685
        -0.19125175 -0.0801754 0.21536064 -0.11758614 -0.13123226 0.2067585
        -0.05710411 -0.17126131 0.22110748 -0.012039185 -0.20179605 0.2482853
        0.018885612 -0.2247572 0.2806568 -9.004823 -0.38599586 3.8018553
        -9.336149 -0.38879064 3.8882868 -9.679349 -0.39179623 3.974444
        -10.03497 -0.3950348 4.0601025 -10.403628 -0.39853117 4.145024
        -10.78602 -0.4023133 4.2289515 -11.182938 -0.4064128 4.3116074
        -11.595282 -0.4108654 4.3926826 -12.024076 -0.41571158 4.4718323
        -12.470488 -0.42099747 4.5486584 -12.935843 -0.4267757 4.6227007
        -13.421639 -0.43310633 4.6934123 -13.929568 -0.44005832 4.7601414
        -14.46153 -0.44771078 4.8220987 -15.019636 -0.45615435 4.8783317
        -15.606229 -0.46549374 4.9276814 -16.223879 -0.47584894 4.968751
        -16.875378 -0.48735836 4.999857 -17.563736 -0.50018114 5.0189962
        -18.29216 -0.51450044 5.0238028 -19.064035 -0.5305267 5.011516
        -19.882914 -0.5485029 4.9789605 -20.752491 -0.5687091 4.922523
        -21.676619 -0.59147114 4.8381534 -22.65933 -0.6171634 4.721329
        -23.704893 -0.6462298 4.5670547 -24.817911 -0.6791938 4.369783
        -26.003405 -0.716681 4.123302 -27.266926 -0.7594462 3.8205528
        -28.614601 -0.80840915 3.4533792 -30.053114 -0.8646999 3.0122464
        -31.589605 -0.9297151 2.4859614 -33.231586 -1.005195 1.8614749
        -34.986942 -1.0933247 1.1237274 -36.864246 -1.1968763 0.25544715
        -38.873528 -1.3194096 -0.7634053 -41.027397 -1.4655545 -1.9570444
        -43.342255 -1.6413893 -3.3567047 -45.838585 -1.8549261 -5.0055275
        -48.538597 -2.1166644 -6.9657497 -51.45861 -2.4401088 -9.327412
        -54.592842 -2.8419716 -12.21571 -57.886524 -3.3415658 -15.790689
        -61.200264 -3.9585087 -20.230293 -64.274414 -4.707652 -25.68659
        -66.71105 -5.5903654 -32.210335 -67.9986 -6.582878 -39.65068
        -67.605484 -7.6257467 -47.558495 -65.15068 -8.6220255 -55.149136
        -60.610046 -9.4509945 -61.39187 -54.45703 -9.997585 -65.251526
        -47.62513 -10.187839 -66.00999 -41.264793 -10.014242 -63.50804
        -36.40322 -9.537072 -58.169613 -33.68174 -8.860845 -50.80192
        -33.279106 -8.09969 -42.29998 -2.7904224 -0.5706215 -2.188879
        -0.16535187 -0.09002662 0.24515724 -0.09480095 -0.13443327 0.2459526
        -0.041172028 -0.16987634 0.26415634 -0.0033931732 -0.1976794 0.29073715
        -9.013192 -0.32763967 3.8078938 -9.34487 -0.3273275 3.8944016
        -9.688441 -0.32699773 3.9806278 -10.044456 -0.32664895 4.066347
        -10.413532 -0.3262798 4.151322 -10.796369 -0.32588872 4.235295
        -11.193759 -0.32547393 4.317986 -11.606608 -0.32503363 4.3990874
        -12.035946 -0.32456574 4.4782515 -12.482941 -0.32406798 4.5550814
        -12.948924 -0.3235379 4.6291146 -13.4354 -0.32297274 4.6998043
        -13.944068 -0.32236958 4.7664943 -14.476832 -0.32172504 4.8283954
        -15.035816 -0.32103556 4.884549 -15.623373 -0.32029703 4.933795
        -16.242083 -0.31950516 4.974728 -16.894749 -0.318655 5.005661
        -17.584398 -0.31774133 5.02458 -18.314257 -0.3167582 5.0291085
        -19.087729 -0.31569922 5.016474 -19.908384 -0.31455758 4.9834833
        -20.77995 -0.31332555 4.926507 -21.706306 -0.31199712 4.8414702
        -22.691517 -0.3105603 4.7238255 -23.7399 -0.30900738 4.568546
        -24.856106 -0.30732927 4.370044 -26.045223 -0.30551642 4.1220617
        -27.31288 -0.3035601 3.817481 -28.665302 -0.30145136 3.4480689
        -30.109293 -0.2991831 3.004191 -31.652147 -0.29674906 2.4745286
        -33.301563 -0.29414347 1.8458674 -35.065662 -0.29136026 1.1029295
        -36.953354 -0.2883874 0.22816181 -38.975063 -0.2851991 -0.7988653
        -41.143986 -0.28173542 -2.0029197 -43.477283 -0.2778723 -3.4160378
        -45.99642 -0.27337128 -5.082588 -48.724854 -0.2678196 -7.0666656
        -51.680214 -0.260577 -9.461123 -54.85781 -0.25077623 -12.395251
        -58.203125 -0.23746246 -16.034628 -61.57509 -0.21980709 -20.563951
        -64.70926 -0.19729094 -26.14208 -67.19865 -0.16955823 -32.824303
        -68.51809 -0.13606855 -40.458233 -68.11966 -0.096477896 -48.58283
        -65.6084 -0.052495062 -56.38857 -60.95609 -0.009756744 -62.809433
        -54.6478 0.023220003 -66.77418 -47.64337 0.039245248 -67.541016
        -41.12539 0.035877287 -64.949844 -36.14666 0.015449196 -59.44594
        -33.359703 -0.017203033 -51.870255 -32.940018 -0.057011217 -43.151134
        -7.214386 -0.034778565 -6.5643597 -0.21377563 -0.06805624 0.30005264
        -0.13498497 -0.11122562 0.28461075 -0.07366371 -0.14755712 0.29109573
        -0.029245377 -0.1773772 0.30941486 -9.005932 -0.269263 3.8030386
        -9.337278 -0.26584318 3.8894873 -9.6805 -0.26217723 3.9756608
        -10.036142 -0.25824037 4.061336 -10.404821 -0.25400484 4.1462746
        -10.787235 -0.24943961 4.230219 -11.184175 -0.24450967 4.3128915
        -11.59654 -0.23917553 4.3939834 -12.025359 -0.23339257 4.4731483
        -12.471795 -0.22711012 4.54999 -12.937172 -0.22027066 4.624047
        -13.422992 -0.21280864 4.6947722 -13.930943 -0.2046491 4.761513
        -14.462926 -0.19570641 4.8234816 -15.021053 -0.18588258 4.8797235
        -15.607666 -0.17506498 4.9290795 -16.225334 -0.16312471 4.970153
        -16.876848 -0.14991383 5.0012603 -17.565216 -0.1352624 5.020396
        -18.293648 -0.11897581 5.025194 -19.065525 -0.10083064 5.012894
        -19.884398 -0.08057019 4.980317 -20.75396 -0.057899497 4.923851
        -21.67806 -0.032480255 4.8394427 -22.660728 -0.0039143693 4.7225695
        -23.706228 0.028257031 4.5682316 -24.819153 0.06457575 4.370881
        -26.004524 0.10568565 4.1243043 -27.267881 0.15235946 3.821437
        -28.61534 0.20553342 3.4541214 -30.053564 0.26635075 3.0128188
        -31.58968 0.3362208 2.4863343 -33.231163 0.4168929 1.8616161
        -34.98587 0.51056165 1.1236063 -36.862324 0.6200183 0.2550397
        -38.870476 0.7488698 -0.76411414 -41.022846 0.9018516 -1.9580309
        -43.335693 1.0852728 -3.357885 -45.82928 1.3075844 -5.006691
        -48.525528 1.5800521 -6.9664574 -51.44034 1.9173634 -9.326822
        -54.56741 2.3378177 -12.212279 -57.85144 2.86243 -15.781772
        -61.152706 3.5122185 -20.211586 -64.2119 4.3027725 -25.651634
        -66.63259 5.2358527 -32.150307 -67.9063 6.288486 -39.55506
        -67.50593 7.401923 -47.417183 -65.05523 8.476515 -54.956303
        -60.53312 9.381929 -61.150345 -54.412037 9.988233 -64.97517
        -47.619556 10.208589 -65.72121 -41.297268 10.030784 -63.2315
        -36.464474 9.518654 -57.924744 -33.758705 8.784765 -50.59915
        -33.3595 7.952224 -42.141 -2.8897114 0.49130392 -2.0322685
        -0.25605583 -0.06919432 0.3635273 -0.17253876 -0.10511351 0.33198547
        -0.10578537 -0.13775158 0.32586098 -0.05600357 -0.16618824 0.33464432
        -8.983388 -0.21246104 3.787467 -9.313729 -0.20599051 3.8737273
        -9.655889 -0.19904663 3.959735 -10.010403 -0.1915812 4.0452676
        -10.377882 -0.18354021 4.1300874 -10.759018 -0.17486304 4.2139397
        -11.154593 -0.16548139 4.296548 -11.565498 -0.15531825 4.3776045
        -11.992746 -0.14428641 4.4567657 -12.437491 -0.132287 4.5336375
        -12.901042 -0.11920745 4.607761 -13.384881 -0.10491955 4.678593
        -13.890677 -0.08927678 4.745488 -14.420308 -0.07211153 4.807663
        -14.975858 -0.053231593 4.864173 -15.559638 -0.03241683 4.9138727
        -16.174181 -0.009414398 4.9553776 -16.82224 0.016065689 4.9870267
        -17.506775 0.04435615 5.006838 -18.23094 0.075838625 5.012476
        -18.998062 0.11095119 5.0012174 -19.811613 0.15019622 4.969929
        -20.675213 0.19415194 4.915053 -21.592615 0.24348243 4.832599
        -22.567734 0.29896355 4.7181215 -23.604702 0.3614937 4.5667124
        -24.707947 0.4321321 4.3729324 -25.882286 0.5121359 4.1307044
        -27.13301 0.6030125 3.8331347 -28.465923 0.70658576 3.472287
        -29.887304 0.8250805 3.038904 -31.4038 0.96123093 2.522164
        -33.02229 1.1184211 1.9094948 -34.749844 1.3008794 1.1864661
        -36.593998 1.5139498 0.33665752 -38.563362 1.7644873 -0.65881634
        -40.668644 2.0614123 -1.8224952 -42.923683 2.416481 -3.1831253
        -45.34555 2.845264 -4.7800384 -47.952213 3.3682628 -6.669566
        -50.755165 4.0118694 -8.932712 -53.74421 4.8085566 -11.681313
        -56.862778 5.795142 -15.056935 -59.97563 7.0077524 -19.214443
        -62.83809 8.47193 -24.281517 -65.08233 10.187289 -30.29075
        -66.24377 12.108131 -37.092003 -65.848526 14.125134 -44.271225
        -63.566902 16.059435 -51.12442 -59.393604 17.683407 -56.740974
        -53.76665 18.774366 -60.21382 -47.53033 19.184855 -60.912346
        -41.72198 18.89403 -58.68658 -37.27561 18.01078 -53.88976
        -34.789684 16.729298 -47.213413 -34.452354 15.265153 -39.437748
        -0.37776756 -0.072330475 0.50922203 -0.28608704 -0.09210634 0.42624092
        -0.20253944 -0.11606026 0.3816719 -0.13370132 -0.14103746 0.36414242
        -0.08076 -0.1649046 0.36355114 -8.946598 -0.15876065 3.7617006
        -9.275291 -0.14935453 3.8476632 -9.615704 -0.13925084 3.9334104
        -9.968365 -0.12837787 4.0187225 -10.333875 -0.11665528 4.103365
        -10.71291 -0.10399293 4.1870847 -11.10624 -0.09028931 4.269608
        -11.51474 -0.07542983 4.3506303 -11.939404 -0.059284925 4.429812
        -12.381366 -0.04170753 4.5067616 -12.841907 -0.022530496 4.5810275
        -13.32248 -0.0015632417 4.6520734 -13.824726 0.021411737 4.7192607
        -14.350477 0.04664349 4.781821 -14.901777 0.074416965 4.838823
        -15.480886 0.10505902 4.8891425 -16.090277 0.13894439 4.9314218
        -16.732635 0.17650278 4.964032 -17.410847 0.21822673 4.985034
        -18.127975 0.26468098 4.992142 -18.887253 0.31651238 4.9826994
        -19.692036 0.37446272 4.953647 -20.54581 0.43938327 4.901518
        -21.452183 0.51225203 4.8224297 -22.41488 0.5942049 4.712064
        -23.437824 0.6865582 4.565664 -24.52518 0.7908574 4.3779736
        -25.681442 0.9089314 4.143136 -26.9115 1.0429664 3.85454
        -28.220675 1.1955963 3.5046067 -29.614632 1.3700213 3.084535
        -31.099274 1.5701541 2.5840988 -32.680542 1.8008077 1.9914918