# vtk DataFile Version 3.0
T01 + IGRF magnetic field in GSW coordinates
ASCII
DATASET STRUCTURED_GRID
DIMENSIONS     61    21    21
POINTS    26901 float
     -50.000000     -10.000000     -10.000000
     -49.000000     -10.000000     -10.000000
     -48.000000     -10.000000     -10.000000
     -47.000000     -10.000000     -10.000000
     -46.000000     -10.000000     -10.000000
     -45.000000     -10.000000     -10.000000
     -44.000000     -10.000000     -10.000000
     -43.000000     -10.000000     -10.000000
     -42.000000     -10.000000     -10.000000
     -41.000000     -10.000000     -10.000000
     -40.000000     -10.000000     -10.000000
     -39.000000     -10.000000     -10.000000
     -38.000000     -10.000000     -10.000000
     -37.000000     -10.000000     -10.000000
     -36.000000     -10.000000     -10.000000
     -35.000000     -10.000000     -10.000000
     -34.000000     -10.000000     -10.000000
     -33.000000     -10.000000     -10.000000
     -32.000000     -10.000000     -10.000000
     -31.000000     -10.000000     -10.000000
     -30.000000     -10.000000     -10.000000
     -29.000000     -10.000000     -10.000000
     -28.000000     -10.000000     -10.000000
     -27.000000     -10.000000     -10.000000
     -26.000000     -10.000000     -10.000000
     -25.000000     -10.000000     -10.000000
     -24.000000     -10.000000     -10.000000
     -23.000000     -10.000000     -10.000000
     -22.000000     -10.000000     -10.000000
     -21.000000     -10.000000     -10.000000
     -20.000000     -10.000000     -10.000000
     -19.000000     -10.000000     -10.000000
     -18.000000     -10.000000     -10.000000
     -17.000000     -10.000000     -10.000000
     -16.000000     -10.000000     -10.000000
     -15.000000     -10.000000     -10.000000
     -14.000000     -10.000000     -10.000000
     -13.000000     -10.000000     -10.000000
     -12.000000     -10.000000     -10.000000
     -11.000000     -10.000000     -10.000000
     -10.000000     -10.000000     -10.000000
      -9.000000     -10.000000     -10.000000
      -8.000000     -10.000000     -10.000000
      -7.000000     -10.000000     -10.000000
      -6.000000     -10.000000     -10.000000
      -5.000000     -10.000000     -10.000000
      -4.000000     -10.000000     -10.000000
      -3.000000     -10.000000     -10.000000
      -2.000000     -10.000000     -10.000000
      -1.000000     -10.000000     -10.000000
       0.000000     -10.000000     -10.000000
       1.000000     -10.000000     -10.000000
       2.000000     -10.000000     -10.000000
       3.000000     -10.000000     -10.000000
       4.000000     -10.000000     -10.000000
       5.000000     -10.000000     -10.000000
       6.000000     -10.000000     -10.000000
       7.000000     -10.000000     -10.000000
       8.000000     -10.000000     -10.000000
       9.000000     -10.000000     -10.000000
      10.000000     -10.000000     -10.000000
     -50.000000      -9.000000     -10.000000
     -49.000000      -9.000000     -10.000000
     -48.000000      -9.000000     -10.000000
     -47.000000      -9.000000     -10.000000
     -46.000000      -9.000000     -10.000000
     -45.000000      -9.000000     -10.000000
     -44.000000      -9.000000     -10.000000
     -43.000000      -9.000000     -10.000000
     -42.000000      -9.000000     -10.000000
     -41.000000      -9.000000     -10.000000
     -40.000000      -9.000000     -10.000000
     -39.000000      -9.000000     -10.000000
     -38.000000      -9.000000     -10.000000
     -37.000000      -9.000000     -10.000000
     -36.000000      -9.000000     -10.000000
     -35.000000      -9.000000     -10.000000
     -34.000000      -9.000000     -10.000000
     -33.000000      -9.000000     -10.000000
     -32.000000      -9.000000     -10.000000
     -31.000000      -9.000000     -10.000000
     -30.000000      -9.000000     -10.000000
     -29.000000      -9.000000     -10.000000
     -28.000000      -9.000000     -10.000000
     -27.000000      -9.000000     -10.000000
     -26.000000      -9.000000     -10.000000
     -25.000000      -9.000000     -10.000000
     -24.000000      -9.000000     -10.000000
     -23.000000      -9.000000     -10.000000
     -22.000000      -9.000000     -10.000000
     -21.000000      -9.000000     -10.000000
     -20.000000      -9.000000     -10.000000
     -19.000000      -9.000000     -10.000000
     -18.000000      -9.000000     -10.000000
     -17.000000      -9.000000     -10.000000
     -16.000000      -9.000000     -10.000000
     -15.000000      -9.000000     -10.000000
     -14.000000      -9.000000     -10.000000
     -13.000000      -9.000000     -10.000000
     -12.000000      -9.000000     -10.000000
     -11.000000      -9.000000     -10.000000
     -10.000000      -9.000000     -10.000000
      -9.000000      -9.000000     -10.000000
      -8.000000      -9.000000     -10.000000
      -7.000000      -9.000000     -10.000000
      -6.000000      -9.000000     -10.000000
      -5.000000      -9.000000     -10.000000
      -4.000000      -9.000000     -10.000000
      -3.000000      -9.000000     -10.000000
      -2.000000      -9.000000     -10.000000
      -1.000000      -9.000000     -10.000000
       0.000000      -9.000000     -10.000000
       1.000000      -9.000000     -10.000000
       2.000000      -9.000000     -10.000000
       3.000000      -9.000000     -10.000000
       4.000000      -9.000000     -10.000000
       5.000000      -9.000000     -10.000000
       6.000000      -9.000000     -10.000000
       7.000000      -9.000000     -10.000000
       8.000000      -9.000000     -10.000000
       9.000000      -9.000000     -10.000000
      10.000000      -9.000000     -10.000000
     -50.000000      -8.000000     -10.000000
     -49.000000      -8.000000     -10.000000
     -48.000000      -8.000000     -10.000000
     -47.000000      -8.000000     -10.000000
     -46.000000      -8.000000     -10.000000
     -45.000000      -8.000000     -10.000000
     -44.000000      -8.000000     -10.000000
     -43.000000      -8.000000     -10.000000
     -42.000000      -8.000000     -10.000000
     -41.000000      -8.000000     -10.000000
     -40.000000      -8.000000     -10.000000
     -39.000000      -8.000000     -10.000000
     -38.000000      -8.000000     -10.000000
     -37.000000      -8.000000     -10.000000
     -36.000000      -8.000000     -10.000000
     -35.000000      -8.000000     -10.000000
     -34.000000      -8.000000     -10.000000
     -33.000000      -8.000000     -10.000000
     -32.000000      -8.000000     -10.000000
     -31.000000      -8.000000     -10.000000
     -30.000000      -8.000000     -10.000000
     -29.000000      -8.000000     -10.000000
     -28.000000      -8.000000     -10.000000
     -27.000000      -8.000000     -10.000000
     -26.000000      -8.000000     -10.000000
     -25.000000      -8.000000     -10.000000
     -24.000000      -8.000000     -10.000000
     -23.000000      -8.000000     -10.000000
     -22.000000      -8.000000     -10.000000
     -21.000000      -8.000000     -10.000000
     -20.000000      -8.000000     -10.000000
     -19.000000      -8.000000     -10.000000
     -18.000000      -8.000000     -10.000000
     -17.000000      -8.000000     -10.000000
     -16.000000      -8.000000     -10.000000
     -15.000000      -8.000000     -10.000000
     -14.000000      -8.000000     -10.000000
     -13.000000      -8.000000     -10.000000
     -12.000000      -8.000000     -10.000000
     -11.000000      -8.000000     -10.000000
     -10.000000      -8.000000     -10.000000
      -9.000000      -8.000000     -10.000000
      -8.000000      -8.000000     -10.000000
      -7.000000      -8.000000     -10.000000
      -6.000000      -8.000000     -10.000000
      -5.000000      -8.000000     -10.000000
      -4.000000      -8.000000     -10.000000
      -3.000000      -8.000000     -10.000000
      -2.000000      -8.000000     -10.000000
      -1.000000      -8.000000     -10.000000
       0.000000      -8.000000     -10.000000
       1.000000      -8.000000     -10.000000
       2.000000      -8.000000     -10.000000
       3.000000      -8.000000     -10.000000
       4.000000      -8.000000     -10.000000
       5.000000      -8.000000     -10.000000
       6.000000      -8.000000     -10.000000
       7.000000      -8.000000     -10.000000
       8.000000      -8.000000     -10.000000
       9.000000      -8.000000     -10.000000
      10.000000      -8.000000     -10.000000
     -50.000000      -7.000000     -10.000000
     -49.000000      -7.000000     -10.000000
     -48.000000      -7.000000     -10.000000
     -47.000000      -7.000000     -10.000000
     -46.000000      -7.000000     -10.000000
     -45.000000      -7.000000     -10.000000
     -44.000000      -7.000000     -10.000000
     -43.000000      -7.000000     -10.000000
     -42.000000      -7.000000     -10.000000
     -41.000000      -7.000000     -10.000000
     -40.000000      -7.000000     -10.000000
     -39.000000      -7.000000     -10.000000
     -38.000000      -7.000000     -10.000000
     -37.000000      -7.000000     -10.000000
     -36.000000      -7.000000     -10.000000
     -35.000000      -7.000000     -10.000000
     -34.000000      -7.000000     -10.000000
     -33.000000      -7.000000     -10.000000
     -32.000000      -7.000000     -10.000000
     -31.000000      -7.000000     -10.000000
     -30.000000      -7.000000     -10.000000
     -29.000000      -7.000000     -10.000000
     -28.000000      -7.000000     -10.000000
     -27.000000      -7.000000     -10.000000
     -26.000000      -7.000000     -10.000000
     -25.000000      -7.000000     -10.000000
[...]
POINT_DATA    26901
VECTORS B_total float
  -8.4852648E+00  -7.1259141E-01   3.3773890E+00
  -8.7904778E+00  -7.3389220E-01   3.4600174E+00
  -9.1057720E+00  -7.5706637E-01   3.5431509E+00
  -9.4315214E+00  -7.8233957E-01   3.6266236E+00
  -9.7681494E+00  -8.0996490E-01   3.7102575E+00
  -1.0116130E+01  -8.4022623E-01   3.7938576E+00
  -1.0476000E+01  -8.7344229E-01   3.8772113E+00
  -1.0848368E+01  -9.0997106E-01   3.9600835E+00
  -1.1233922E+01  -9.5021534E-01   4.0422106E+00
  -1.1633440E+01  -9.9462843E-01   4.1232934E+00
  -1.2047799E+01  -1.0437212E+00   4.2029910E+00
  -1.2477981E+01  -1.0980698E+00   4.2809052E+00
  -1.2925078E+01  -1.1583236E+00   4.3565731E+00
  -1.3390306E+01  -1.2252164E+00   4.4294481E+00
  -1.3874995E+01  -1.2995746E+00   4.4988861E+00
  -1.4380588E+01  -1.3823308E+00   4.5641265E+00
  -1.4908637E+01  -1.4745342E+00   4.6242723E+00
  -1.5460790E+01  -1.5773638E+00   4.6782722E+00
  -1.6038761E+01  -1.6921427E+00   4.7249017E+00
  -1.6644320E+01  -1.8203493E+00   4.7627506E+00
  -1.7279242E+01  -1.9636335E+00   4.7902088E+00
  -1.7945288E+01  -2.1238303E+00   4.8054652E+00
  -1.8644152E+01  -2.3029752E+00   4.8065081E+00
  -1.9377439E+01  -2.5033247E+00   4.7911310E+00
  -2.0146622E+01  -2.7273765E+00   4.7569447E+00
  -2.0953007E+01  -2.9778984E+00   4.7013941E+00
  -2.1797714E+01  -3.2579651E+00   4.6217432E+00
  -2.2681637E+01  -3.5710020E+00   4.5150967E+00
  -2.3605375E+01  -3.9208364E+00   4.3783655E+00
  -2.4569155E+01  -4.3117571E+00   4.2082481E+00
  -2.5572676E+01  -4.7485709E+00   4.0012174E+00
  -2.6614922E+01  -5.2366509E+00   3.7535393E+00
  -2.7693918E+01  -5.7819734E+00   3.4613423E+00
  -2.8806517E+01  -6.3911424E+00   3.1207838E+00
  -2.9948229E+01  -7.0713987E+00   2.7282557E+00
  -3.1113165E+01  -7.8306408E+00   2.2806246E+00
  -3.2294121E+01  -8.6774454E+00   1.7753986E+00
  -3.3482697E+01  -9.6210804E+00   1.2107083E+00
  -3.4669334E+01  -1.0671460E+01   5.8505106E-01
  -3.5842964E+01  -1.1838877E+01  -1.0321307E-01
  -3.6990120E+01  -1.3133326E+01  -8.5638690E-01
  -3.8093285E+01  -1.4563100E+01  -1.6776040E+00
  -3.9128841E+01  -1.6132351E+01  -2.5700526E+00
  -4.0065483E+01  -1.7837553E+01  -3.5347352E+00
  -4.0864368E+01  -1.9663080E+01  -4.5666571E+00
  -4.1482632E+01  -2.1576900E+01  -5.6500335E+00
  -4.1881065E+01  -2.3527805E+01  -6.7538419E+00
  -4.2035461E+01  -2.5446150E+01  -7.8296661E+00
  -4.1949436E+01  -2.7249714E+01  -8.8134022E+00
  -4.1664631E+01  -2.8854929E+01  -9.6316471E+00
  -4.1264282E+01  -3.0192078E+01  -1.0211741E+01
  -4.0867065E+01  -3.1220701E+01  -1.0492907E+01
  -6.8397045E-02  -3.5116863E-01   4.0541363E-01
  -6.0950067E-02  -3.6357498E-01   3.9368391E-01
  -4.9101591E-02  -3.7362766E-01   3.8557053E-01
  -3.4544945E-02  -3.8036156E-01   3.8172340E-01
  -1.9102573E-02  -3.8346577E-01   3.8211203E-01
  -4.3454170E-03  -3.8319588E-01   3.8617229E-01
   8.5945129E-03  -3.8012695E-01   3.9305663E-01
   1.9113541E-02  -3.7504005E-01   4.0179896E-01
   2.7037621E-02  -3.6869383E-01   4.1151619E-01
  -8.5500717E+00  -6.9797617E-01   3.4428577E+00
  -8.8591938E+00  -7.1866071E-01   3.5260420E+00
  -9.1787138E+00  -7.4111831E-01   3.6095979E+00
  -9.5090399E+00  -7.6555485E-01   3.6933484E+00
  -9.8506289E+00  -7.9220122E-01   3.7771032E+00
  -1.0203996E+01  -8.2131618E-01   3.8606570E+00
  -1.0569723E+01  -8.5319060E-01   3.9437838E+00
  -1.0948471E+01  -8.8815117E-01   4.0262351E+00
  -1.1340987E+01  -9.2656606E-01   4.1077318E+00
  -1.1748118E+01  -9.6885014E-01   4.1879573E+00
  -1.2170819E+01  -1.0154723E+00   4.2665477E+00
  -1.2610160E+01  -1.0669621E+00   4.3430800E+00
  -1.3067342E+01  -1.1239190E+00   4.4170575E+00
  -1.3543693E+01  -1.1870217E+00   4.4878931E+00
  -1.4040676E+01  -1.2570386E+00   4.5548902E+00
  -1.4559890E+01  -1.3348391E+00   4.6172214E+00
  -1.5103055E+01  -1.4214071E+00   4.6739073E+00
  -1.5672008E+01  -1.5178530E+00   4.7237940E+00
  -1.6268675E+01  -1.6254289E+00   4.7655320E+00
  -1.6895048E+01  -1.7455432E+00   4.7975574E+00
  -1.7553164E+01  -1.8797761E+00   4.8180795E+00
  -1.8245045E+01  -2.0298975E+00   4.8250756E+00
  -1.8972685E+01  -2.1978850E+00   4.8162880E+00
  -1.9738003E+01  -2.3859482E+00   4.7892370E+00
  -2.0542814E+01  -2.5965557E+00   4.7412214E+00
  -2.1388815E+01  -2.8324702E+00   4.6693430E+00
  -2.2277550E+01  -3.0967965E+00   4.5704818E+00
  -2.3210396E+01  -3.3930354E+00   4.4413137E+00
  -2.4188509E+01  -3.7251570E+00   4.2782564E+00
  -2.5212740E+01  -4.0976777E+00   4.0774364E+00
  -2.6283474E+01  -4.5157461E+00   3.8346496E+00
  -2.7400423E+01  -4.9852252E+00   3.5453606E+00
  -2.8562359E+01  -5.5127716E+00   3.2047763E+00
  -2.9766844E+01  -6.1059084E+00   2.8080082E+00
  -3.1010046E+01  -6.7731090E+00   2.3503046E+00
  -3.2286682E+01  -7.5238900E+00   1.8273115E+00
  -3.3590073E+01  -8.3689384E+00   1.2352087E+00
  -3.4912292E+01  -9.3202543E+00   5.7062674E-01
  -3.6244080E+01  -1.0391219E+01  -1.6979957E-01
  -3.7574253E+01  -1.1596433E+01  -9.9018598E-01
  -3.8888203E+01  -1.2951024E+01  -1.8961916E+00
  -4.0165268E+01  -1.4469003E+01  -2.8952687E+00
  -4.1375332E+01  -1.6160191E+01  -3.9955115E+00
  -4.2475777E+01  -1.8025465E+01  -5.2022781E+00
  -4.3410866E+01  -2.0050512E+01  -6.5123172E+00
  -4.4115852E+01  -2.2199173E+01  -7.9062052E+00
  -4.4527512E+01  -2.4408497E+01  -9.3411694E+00
  -4.4600811E+01  -2.6588291E+01  -1.0747293E+01
  -4.4328445E+01  -2.8628010E+01  -1.2030005E+01
  -4.3757366E+01  -3.0411743E+01  -1.3080316E+01
  -4.2995338E+01  -3.1839506E+01  -1.3791412E+01
  -4.2202660E+01  -3.2849373E+01  -1.4077202E+01
  -4.1569347E+01  -3.3433449E+01  -1.3886679E+01
  -7.3988914E-02  -3.5438728E-01   3.6015034E-01
  -5.8912754E-02  -3.6756802E-01   3.5019970E-01
  -4.0384769E-02  -3.7673283E-01   3.4628487E-01
  -2.0955086E-02  -3.8143730E-01   3.4821415E-01
  -2.7456284E-03  -3.8200188E-01   3.5503721E-01
   1.2828827E-02  -3.7920284E-01   3.6541128E-01
   2.5099754E-02  -3.7403774E-01   3.7792969E-01
   3.3973217E-02  -3.6744595E-01   3.9136839E-01
  -8.6201029E+00  -6.7968708E-01   3.5070515E+00
  -8.9331226E+00  -6.9932044E-01   3.5907273E+00
  -9.2568378E+00  -7.2059232E-01   3.6746411E+00
  -9.5916824E+00  -7.4368733E-01   3.7586052E+00
  -9.9381447E+00  -7.6881236E-01   3.8424196E+00
  -1.0296778E+01  -7.9619956E-01   3.9258664E+00
  -1.0668205E+01  -8.2610941E-01   4.0087090E+00
  -1.1053136E+01  -8.5883540E-01   4.0906839E+00
  -1.1452372E+01  -8.9470816E-01   4.1714978E+00
  -1.1866823E+01  -9.3410134E-01   4.2508178E+00
  -1.2297518E+01  -9.7743738E-01   4.3282580E+00
  -1.2745612E+01  -1.0251951E+00   4.4033699E+00
  -1.3212401E+01  -1.0779178E+00   4.4756250E+00
  -1.3699327E+01  -1.1362220E+00   4.5443945E+00
  -1.4207977E+01  -1.2008086E+00   4.6089315E+00
  -1.4740095E+01  -1.2724733E+00   4.6683421E+00
  -1.5297565E+01  -1.3521196E+00   4.7215652E+00
  -1.5882402E+01  -1.4407724E+00   4.7673440E+00
  -1.6496740E+01  -1.5395918E+00   4.8042026E+00
  -1.7142799E+01  -1.6498899E+00   4.8304238E+00
  -1.7822851E+01  -1.7731466E+00   4.8440332E+00
  -1.8539200E+01  -1.9110290E+00   4.8427935E+00
  -1.9294132E+01  -2.0654130E+00   4.8241968E+00
  -2.0089890E+01  -2.2384086E+00   4.7854762E+00
  -2.0928652E+01  -2.4323936E+00   4.7236156E+00
  -2.1812515E+01  -2.6500530E+00   4.6353407E+00
  -2.2743496E+01  -2.8944347E+00   4.5171394E+00
  -2.3723501E+01  -3.1690173E+00   4.3652167E+00
  -2.4754314E+01  -3.4777944E+00   4.1754498E+00
  -2.5837509E+01  -3.8253732E+00   3.9433284E+00
  -2.6974285E+01  -4.2170858E+00   3.6638799E+00
  -2.8165260E+01  -4.6591063E+00   3.3316493E+00
  -2.9410172E+01  -5.1585779E+00   2.9407609E+00
  -3.0707590E+01  -5.7237415E+00   2.4850607E+00
  -3.2054733E+01  -6.3641014E+00   1.9583802E+00
  -3.3447403E+01  -7.0906258E+00   1.3547692E+00
  -3.4880100E+01  -7.9160147E+00   6.6859269E-01
  -3.6346142E+01  -8.8550043E+00  -1.0571074E-01
  -3.7837509E+01  -9.9246359E+00  -9.7433448E-01
  -3.9343922E+01  -1.1144282E+01  -1.9452329E+00
  -4.0850597E+01  -1.2535046E+01  -3.0293233E+00
  -4.2334274E+01  -1.4117994E+01  -4.2409039E+00
  -4.3757908E+01  -1.5910509E+01  -5.5960798E+00
  -4.5065495E+01  -1.7920244E+01  -7.1078486E+00
  -4.6179886E+01  -2.0136692E+01  -8.7773447E+00
  -4.7007195E+01  -2.2521534E+01  -1.0582170E+01
  -4.7450775E+01  -2.5000526E+01  -1.2464853E+01
  -4.7434883E+01  -2.7460960E+01  -1.4326189E+01
  -4.6933990E+01  -2.9759117E+01  -1.6028374E+01
  -4.5998859E+01  -3.1739986E+01  -1.7410904E+01
  -4.4768017E+01  -3.3266640E+01  -1.8317368E+01
  -4.3456554E+01  -3.4251556E+01  -1.8625837E+01
  -4.2322136E+01  -3.4679092E+01  -1.8272253E+01
  -4.1618111E+01  -3.4610683E+01  -1.7257740E+01
  -7.2245836E-02  -3.5084724E-01   3.0994415E-01
  -4.8876762E-02  -3.6389923E-01   3.0568504E-01
  -2.4569988E-02  -3.7150574E-01   3.0942249E-01
  -2.1605492E-03  -3.7405586E-01   3.1961870E-01
   1.6574860E-02  -3.7254238E-01   3.3425713E-01
   3.0896664E-02  -3.6817169E-01   3.5134554E-01
   4.0858746E-02  -3.6209965E-01   3.6921310E-01
  -8.6926231E+00  -6.5596080E-01   3.5684736E+00
  -9.0094280E+00  -6.7411518E-01   3.6526163E+00
  -9.3371954E+00  -6.9374567E-01   3.7368722E+00
  -9.6763859E+00  -7.1501458E-01   3.8210452E+00
  -1.0027518E+01  -7.3810381E-01   3.9049239E+00
  -1.0391176E+01  -7.6321721E-01   3.9882817E+00
  -1.0768023E+01  -7.9058421E-01   4.0708704E+00
  -1.1158810E+01  -8.2046300E-01   4.1524148E+00
  -1.1564390E+01  -8.5314506E-01   4.2326093E+00
  -1.1985732E+01  -8.8896018E-01   4.3111029E+00
  -1.2423930E+01  -9.2828178E-01   4.3874931E+00
  -1.2880218E+01  -9.7153419E-01   4.4613061E+00
  -1.3355980E+01  -1.0191996E+00   4.5319839E+00
  -1.3852757E+01  -1.0718271E+00   4.5988607E+00
  -1.4372262E+01  -1.1300418E+00   4.6611395E+00
  -1.4916365E+01  -1.1945562E+00   4.7178659E+00
  -1.5487104E+01  -1.2661822E+00   4.7679014E+00
  -1.6086668E+01  -1.3458433E+00   4.8098917E+00
  -1.6717381E+01  -1.4345895E+00   4.8422399E+00
  -1.7381672E+01  -1.5336130E+00   4.8630834E+00
  -1.8082056E+01  -1.6442652E+00   4.8702707E+00
  -1.8821096E+01  -1.7680757E+00   4.8613567E+00
  -1.9601368E+01  -1.9067762E+00   4.8335905E+00
  -2.0425434E+01  -2.0623276E+00   4.7839260E+00
  -2.1295841E+01  -2.2369545E+00   4.7090292E+00
  -2.2215099E+01  -2.4331901E+00   4.6052647E+00
  -2.3185703E+01  -2.6539381E+00   4.4687076E+00
  -2.4210133E+01  -2.9025443E+00   4.2950869E+00
  -2.5290838E+01  -3.1828949E+00   4.0797186E+00
  -2.6430182E+01  -3.4995289E+00   3.8174114E+00
  -2.7630281E+01  -3.8577702E+00   3.5023718E+00
  -2.8892790E+01  -4.2638769E+00   3.1281376E+00
  -3.0218613E+01  -4.7252073E+00   2.6876209E+00
  -3.1607601E+01  -5.2504182E+00   2.1732390E+00
  -3.3058399E+01  -5.8497057E+00   1.5771484E+00
  -3.4568409E+01  -6.5351305E+00   8.9144516E-01
  -3.6133991E+01  -7.3210421E+00   1.0815120E-01
  -3.7750618E+01  -8.2245903E+00  -7.8125024E-01
  -3.9412643E+01  -9.2662497E+00  -1.7869051E+00
  -4.1112019E+01  -1.0470117E+01  -2.9222584E+00
  -4.2835148E+01  -1.1863552E+01  -4.2058382E+00
  -4.4557259E+01  -1.3475455E+01  -5.6620312E+00
  -4.6234573E+01  -1.5332232E+01  -7.3190541E+00
  -4.7796089E+01  -1.7450556E+01  -9.2021723E+00
  -4.9138809E+01  -1.9826612E+01  -1.1321043E+01
  -5.0131866E+01  -2.2422928E+01  -1.3652162E+01
  -5.0634087E+01  -2.5156050E+01  -1.6120762E+01
  -5.0526764E+01  -2.7890743E+01  -1.8589127E+01
  -4.9756470E+01  -3.0447336E+01  -2.0859890E+01
  -4.8375099E+01  -3.2626434E+01  -2.2699728E+01
  -4.6559349E+01  -3.4248482E+01  -2.3881626E+01
  -4.4595772E+01  -3.5197109E+01  -2.4233828E+01
  -4.2830421E+01  -3.5449883E+01  -2.3677027E+01
  -4.1599510E+01  -3.5084198E+01  -2.2234680E+01
  -5.8064098E+00  -5.0414553E+00  -2.5538263E+00
  -6.1757088E-02  -3.3817673E-01   2.6264763E-01
  -3.1486511E-02  -3.5067272E-01   2.6791859E-01
  -3.9434433E-03  -3.5698128E-01   2.8169441E-01
   1.8642426E-02  -3.5828018E-01   3.0106640E-01
   3.5485268E-02  -3.5604382E-01   3.2325125E-01
   4.6816826E-02  -3.5162544E-01   3.4603786E-01
  -8.7644701E+00  -6.2577403E-01   3.6256812E+00
  -9.0848341E+00  -6.4205241E-01   3.7102885E+00
  -9.4163980E+00  -6.5962297E-01   3.7948997E+00
  -9.7596483E+00  -6.7862517E-01   3.8793101E+00
  -1.0115126E+01  -6.9921488E-01   3.9633005E+00
  -1.0483445E+01  -7.2156739E-01   4.0466352E+00
  -1.0865304E+01  -7.4587983E-01   4.1290565E+00
  -1.1261492E+01  -7.7237421E-01   4.2102804E+00
  -1.1672907E+01  -8.0130160E-01   4.2899885E+00
  -1.2100569E+01  -8.3294618E-01   4.3678174E+00
  -1.2545632E+01  -8.6763036E-01   4.4433465E+00
  -1.3009400E+01  -9.0572113E-01   4.5160837E+00
  -1.3493338E+01  -9.4763631E-01   4.5854425E+00
  -1.3999078E+01  -9.9385238E-01   4.6507239E+00
  -1.4528438E+01  -1.0449134E+00   4.7110891E+00
  -1.5083409E+01  -1.1014411E+00   4.7655277E+00
  -1.5666167E+01  -1.1641451E+00   4.8128314E+00
  -1.6279058E+01  -1.2338357E+00   4.8515573E+00
  -1.6924576E+01  -1.3114370E+00   4.8800001E+00
  -1.7605354E+01  -1.3980017E+00   4.8961630E+00
  -1.8324123E+01  -1.4947277E+00   4.8977361E+00
  -1.9083691E+01  -1.6029778E+00   4.8820796E+00
  -1.9886902E+01  -1.7243015E+00   4.8462205E+00
  -2.0736635E+01  -1.8604631E+00   4.7868509E+00
  -2.1635786E+01  -2.0134790E+00   4.7003403E+00
  -2.2587273E+01  -2.1856592E+00   4.5827088E+00
  -2.3594069E+01  -2.3796747E+00   4.4296365E+00
  -2.4659225E+01  -2.5986309E+00   4.2363853E+00
  -2.5785881E+01  -2.8461709E+00   3.9977162E+00
  -2.6977209E+01  -3.1265943E+00   3.7077584E+00
  -2.8236301E+01  -3.4450052E+00   3.3598757E+00
  -2.9565937E+01  -3.8074815E+00   2.9465709E+00
  -3.0968313E+01  -4.2212772E+00   2.4594793E+00
  -3.2444786E+01  -4.6950669E+00   1.8894761E+00
  -3.3995728E+01  -5.2392726E+00   1.2268665E+00
  -3.5620617E+01  -5.8664923E+00   4.6150351E-01
  -3.7318333E+01  -6.5920787E+00  -4.1740918E-01
  -3.9087399E+01  -7.4348707E+00  -1.4220777E+00
  -4.0925720E+01  -8.4179831E+00  -2.5677505E+00
  -4.2828968E+01  -9.5694561E+00  -3.8751004E+00
  -4.4786400E+01  -1.0922254E+01  -5.3728552E+00
  -4.6773354E+01  -1.2512812E+01  -7.0991397E+00
  -4.8740238E+01  -1.4376907E+01  -9.0991774E+00
  -5.0600277E+01  -1.6541571E+01  -1.1416308E+01
  -5.2221046E+01  -1.9012226E+01  -1.4074360E+01
  -5.3427048E+01  -2.1755905E+01  -1.7052294E+01
  -5.4020927E+01  -2.4684063E+01  -2.0256420E+01
  -5.3827133E+01  -2.7642309E+01  -2.3500834E+01
  -5.2752464E+01  -3.0416428E+01  -2.6509361E+01
  -5.0845871E+01  -3.2761887E+01  -2.8949593E+01
  -4.8330181E+01  -3.4454708E+01  -3.0497410E+01
  -4.5582607E+01  -3.5348846E+01  -3.0913639E+01
  -4.3061752E+01  -3.5416946E+01  -3.0102119E+01
  -4.1206543E+01  -3.4756527E+01  -2.8123280E+01
  -4.0346886E+01  -3.3559952E+01  -2.5158838E+01
  -8.1408501E-02  -2.9646301E-01   2.2235680E-01
  -4.3899536E-02  -3.1642532E-01   2.2780418E-01
  -1.0017395E-02  -3.2881546E-01   2.4451351E-01
   1.7376900E-02  -3.3497429E-01   2.6837540E-01
   3.7438393E-02  -3.3659744E-01   2.9563332E-01
   5.0644875E-02  -3.3529663E-01   3.2337427E-01
  -8.8323011E+00  -5.8882087E-01   3.6772606E+00
  -9.1558876E+00  -6.0287321E-01   3.7623320E+00
  -9.4908819E+00  -6.1801773E-01   3.8473153E+00
  -9.8377876E+00  -6.3437068E-01   3.9319994E+00
  -1.0197169E+01  -6.5206188E-01   4.0161586E+00
  -1.0569666E+01  -6.7123735E-01   4.0995498E+00
  -1.0956005E+01  -6.9206142E-01   4.1819091E+00
  -1.1357010E+01  -7.1471936E-01   4.2629433E+00
  -1.1773619E+01  -7.3942083E-01   4.3423247E+00
  -1.2206894E+01  -7.6640350E-01   4.4196792E+00
  -1.2658044E+01  -7.9593736E-01   4.4945726E+00
  -1.3128431E+01  -8.2832992E-01   4.5664949E+00
  -1.3619589E+01  -8.6393178E-01   4.6348381E+00
  -1.4133234E+01  -9.0314388E-01   4.6988754E+00
  -1.4671272E+01  -9.4642466E-01   4.7577291E+00
  -1.5235805E+01  -9.9429846E-01   4.8103437E+00
  -1.5829123E+01  -1.0473660E+00   4.8554506E+00
  -1.6453712E+01  -1.1063139E+00   4.8915305E+00
  -1.7112223E+01  -1.1719279E+00   4.9167857E+00
  -1.7807459E+01  -1.2451053E+00   4.9291015E+00
  -1.8542351E+01  -1.3268712E+00   4.9260283E+00
  -1.9319920E+01  -1.4183948E+00   4.9047585E+00
  -2.0143267E+01  -1.5210121E+00   4.8621225E+00
  -2.1015554E+01  -1.6362518E+00   4.7945833E+00
  -2.1939997E+01  -1.7658700E+00   4.6982422E+00
  -2.2919901E+01  -1.9118911E+00   4.5688119E+00
  -2.3958698E+01  -2.0766721E+00   4.4016085E+00
  -2.5059982E+01  -2.2629752E+00   4.1914654E+00
  -2.6227562E+01  -2.4740672E+00   3.9326210E+00
  -2.7465412E+01  -2.7138405E+00   3.6185582E+00
  -2.8777580E+01  -2.9869611E+00   3.2418318E+00
  -3.0167992E+01  -3.2990487E+00   2.7939327E+00
  -3.1640200E+01  -3.6568964E+00   2.2652326E+00
  -3.3197166E+01  -4.0687485E+00   1.6450510E+00
  -3.4841209E+01  -4.5446773E+00   9.2176795E-01
  -3.6574211E+01  -5.0970926E+00   8.2819462E-02
  -3.8398071E+01  -5.7414398E+00  -8.8572145E-01
  -4.0315105E+01  -6.4970970E+00  -2.0003278E+00
  -4.2327824E+01  -7.3884192E+00  -3.2822914E+00
  -4.4436962E+01  -8.4457130E+00  -4.7610397E+00
  -4.6636391E+01  -9.7056789E+00  -6.4778471E+00
  -4.8903427E+01  -1.1210390E+01  -8.4881334E+00
  -5.1184250E+01  -1.3003478E+01  -1.0859061E+01
  -5.3376793E+01  -1.5121748E+01  -1.3658250E+01
  -5.5317116E+01  -1.7580999E+01  -1.6930454E+01
  -5.6779221E+01  -2.0356201E+01  -2.0662172E+01
  -5.7499260E+01  -2.3359715E+01  -2.4741060E+01
  -5.7231178E+01  -2.6425896E+01  -2.8924507E+01
  -5.5829353E+01  -2.9314526E+01  -3.2838017E+01
  -5.3334427E+01  -3.1743668E+01  -3.6021423E+01
  -5.0022491E+01  -3.3451012E+01  -3.8023781E+01
  -4.6380806E+01  -3.4265278E+01  -3.8519138E+01
  -4.3004822E+01  -3.4156879E+01  -3.7393829E+01
  -4.0455124E+01  -3.3243935E+01  -3.4763607E+01
  -3.9135227E+01  -3.1752190E+01  -3.0914982E+01
  -6.2327213E+00  -4.8871841E+00  -3.9378033E+00
  -6.4426422E-02  -2.6790333E-01   1.9527626E-01
  -2.2737503E-02  -2.8892708E-01   2.1284866E-01
   1.0745049E-02  -3.0218220E-01   2.3984623E-01
   3.5052299E-02  -3.0960560E-01   2.7123165E-01
   5.0944328E-02  -3.1303310E-01   3.0325603E-01
  -8.8928690E+00  -5.4541081E-01   3.7218411E+00
  -9.2192421E+00  -5.5694234E-01   3.8073568E+00
  -9.5571947E+00  -5.6935495E-01   3.8927119E+00
  -9.9072466E+00  -5.8274108E-01   3.9776897E+00
  -1.0269981E+01  -5.9720457E-01   4.0620599E+00
  -1.0646061E+01  -6.1286187E-01   4.1455736E+00
  -1.1036235E+01  -6.2984437E-01   4.2279615E+00
  -1.1441356E+01  -6.4830011E-01   4.3089237E+00
  -1.1862392E+01  -6.6839695E-01   4.3881264E+00
  -1.2300449E+01  -6.9032514E-01   4.4651852E+00
  -1.2756773E+01  -7.1430111E-01   4.5396562E+00
  -1.3232779E+01  -7.4057162E-01   4.6110144E+00
  -1.3730060E+01  -7.6941860E-01   4.6786361E+00
  -1.4250398E+01  -8.0116445E-01   4.7417698E+00
  -1.4795776E+01  -8.3617848E-01   4.7995100E+00
  -1.5368384E+01  -8.7488389E-01   4.8507609E+00
  -1.5970618E+01  -9.1776615E-01   4.8942056E+00
  -1.6605074E+01  -9.6538150E-01   4.9282632E+00
  -1.7274534E+01  -1.0183671E+00   4.9510574E+00
  -1.7981951E+01  -1.0774530E+00   4.9603801E+00
  -1.8730419E+01  -1.1434746E+00   4.9536633E+00
  -1.9523157E+01  -1.2173889E+00   4.9279628E+00
  -2.0363474E+01  -1.3002918E+00   4.8799429E+00
  -2.1254782E+01  -1.3934429E+00   4.8058734E+00
  -2.2200588E+01  -1.4982967E+00   4.7016325E+00
  -2.3204533E+01  -1.6165363E+00   4.5626664E+00
  -2.4270460E+01  -1.7501345E+00   4.3839798E+00
  -2.5402466E+01  -1.9014179E+00   4.1600313E+00
  -2.6604956E+01  -2.0731568E+00   3.8845973E+00
  -2.7882647E+01  -2.2686777E+00   3.5505834E+00
  -2.9240486E+01  -2.4920013E+00   3.1498129E+00
  -3.0683485E+01  -2.7480164E+00   2.6728516E+00
  -3.2216496E+01  -3.0426950E+00   2.1088986E+00