# vtk DataFile Version 3.0
SM polar seed points transformed to GSW coordinates
ASCII
DATASET POLYDATA
POINTS      288 float
       0.990558       0.000000       1.126408
       0.965501       0.194114       1.131428
       0.892035       0.375000       1.146145
       0.775168       0.530330       1.169557
       0.622864       0.649519       1.200069
       0.445503       0.724444       1.235600
       0.255170       0.750000       1.273730
       0.064838       0.724444       1.311860
      -0.112524       0.649519       1.347391
      -0.264828       0.530330       1.377903
      -0.381695       0.375000       1.401315
      -0.455160       0.194114       1.416033
      -0.480218      -0.000000       1.421053
      -0.455161      -0.194114       1.416033
      -0.381695      -0.375000       1.401315
      -0.264828      -0.530330       1.377903
      -0.112524      -0.649519       1.347391
       0.064838      -0.724444       1.311860
       0.255170      -0.750000       1.273730
       0.445503      -0.724444       1.235600
       0.622864      -0.649519       1.200069
       0.775168      -0.530330       1.169557
       0.892035      -0.375000       1.146145
       0.965501      -0.194114       1.131428
       0.888616       0.000000       1.208454
       0.867436       0.164072       1.212697
       0.805341       0.316964       1.225137
       0.706560       0.448254       1.244926
       0.577828       0.548997       1.270715
       0.427915       0.612327       1.300748
       0.267039       0.633927       1.332976
       0.106163       0.612327       1.365205
      -0.043750       0.548997       1.395238
      -0.172482       0.448254       1.421027
      -0.271263       0.316964       1.440816
      -0.333358       0.164073       1.453256
      -0.354538      -0.000000       1.457499
      -0.333358      -0.164073       1.453256
      -0.271263      -0.316964       1.440816
      -0.172482      -0.448254       1.421027
      -0.043749      -0.548997       1.395238
       0.106163      -0.612327       1.365205
       0.267039      -0.633927       1.332976
       0.427915      -0.612327       1.300748
       0.577828      -0.548997       1.270715
       0.706560      -0.448254       1.244926
       0.805341      -0.316964       1.225137
       0.867436      -0.164073       1.212697
       0.779911       0.000000       1.281304
       0.762771       0.132782       1.284737
       0.712517       0.256515       1.294805
       0.632575       0.362767       1.310820
       0.528393       0.444297       1.331691
       0.407071       0.495549       1.355996
       0.276876       0.513030       1.382078
       0.146681       0.495549       1.408161
       0.025358       0.444297       1.432465
      -0.078824       0.362767       1.453336
      -0.158766       0.256515       1.469351
      -0.209019       0.132782       1.479419
      -0.226160      -0.000000       1.482853
      -0.209019      -0.132782       1.479419
      -0.158766      -0.256515       1.469351
      -0.078824      -0.362767       1.453336
       0.025358      -0.444297       1.432465
       0.146681      -0.495549       1.408161
       0.276876      -0.513030       1.382078
       0.407071      -0.495549       1.355996
       0.528393      -0.444297       1.331691
       0.632575      -0.362767       1.310820
       0.712517      -0.256515       1.294805
       0.762770      -0.132782       1.284737
       0.665270       0.000000       1.344402
       0.652299       0.100481       1.347000
       0.614271       0.194114       1.354618
       0.553776       0.274519       1.366738
       0.474938       0.336216       1.382532
       0.383129       0.375000       1.400924
       0.284605       0.388229       1.420661
       0.186082       0.375000       1.440399
       0.094273       0.336216       1.458791
       0.015434       0.274519       1.474585
      -0.045060       0.194114       1.486704
      -0.083089       0.100481       1.494323
      -0.096060      -0.000000       1.496921
      -0.083089      -0.100481       1.494323
      -0.045060      -0.194114       1.486704
       0.015434      -0.274519       1.474585
       0.094273      -0.336216       1.458791
       0.186082      -0.375000       1.440399
       0.284605      -0.388229       1.420661
       0.383129      -0.375000       1.400924
       0.474938      -0.336216       1.382532
       0.553776      -0.274519       1.366738
       0.614271      -0.194114       1.354618
       0.652299      -0.100481       1.347000
       0.545566       0.000000       1.397268
       0.536864       0.067415       1.399011
       0.511350       0.130236       1.404123
       0.470762       0.184182       1.412253
       0.417868       0.225576       1.422850
       0.356270       0.251597       1.435190
       0.290169       0.260472       1.448432
       0.224067       0.251597       1.461675
       0.162470       0.225576       1.474015
       0.109575       0.184182       1.484611
       0.068988       0.130236       1.492742
       0.043473       0.067415       1.497854
       0.034771      -0.000000       1.499597
       0.043473      -0.067415       1.497854
       0.068988      -0.130236       1.492742
       0.109575      -0.184182       1.484611
       0.162470      -0.225576       1.474015
       0.224067      -0.251597       1.461675
       0.290169      -0.260472       1.448432
       0.356270      -0.251597       1.435190
       0.417868      -0.225576       1.422850
       0.470762      -0.184182       1.412253
       0.511350      -0.130236       1.404123
       0.536864      -0.067415       1.399011
       0.421710       0.000000       1.439500
       0.417343       0.033836       1.440375
       0.404537       0.065367       1.442940
       0.384165       0.092443       1.447021
       0.357617       0.113219       1.452340
       0.326701       0.126279       1.458534
       0.293524       0.130734       1.465180
       0.260347       0.126279       1.471827
       0.229430       0.113219       1.478020
       0.202882       0.092443       1.483339
       0.182511       0.065367       1.487420
       0.169705       0.033836       1.489985
       0.165337      -0.000000       1.490860
       0.169705      -0.033836       1.489985
       0.182511      -0.065367       1.487420
       0.202882      -0.092443       1.483339
       0.229430      -0.113219       1.478020
       0.260347      -0.126279       1.471827
       0.293524      -0.130734       1.465180
       0.326701      -0.126279       1.458534
       0.357617      -0.113219       1.452340
       0.384165      -0.092443       1.447021
       0.404537      -0.065367       1.442940
       0.417343      -0.033836       1.440375
       0.480218       0.000000      -1.421053
       0.455161       0.194114      -1.416033
       0.381695       0.375000      -1.401315
       0.264828       0.530330      -1.377903
       0.112524       0.649519      -1.347391
      -0.064838       0.724444      -1.311860
      -0.255170       0.750000      -1.273730
      -0.445503       0.724444      -1.235600
      -0.622864       0.649519      -1.200069
      -0.775168       0.530330      -1.169557
      -0.892035       0.375000      -1.146145
      -0.965501       0.194114      -1.131428
      -0.990558      -0.000000      -1.126408
      -0.965501      -0.194114      -1.131428
      -0.892035      -0.375000      -1.146145
      -0.775168      -0.530330      -1.169557
      -0.622864      -0.649519      -1.200069
      -0.445503      -0.724444      -1.235600
      -0.255170      -0.750000      -1.273730
      -0.064838      -0.724444      -1.311860
       0.112524      -0.649519      -1.347391
       0.264828      -0.530330      -1.377903
       0.381695      -0.375000      -1.401315
       0.455160      -0.194114      -1.416033
       0.354538       0.000000      -1.457499
       0.333358       0.164072      -1.453256
       0.271263       0.316964      -1.440816
       0.172482       0.448254      -1.421027
       0.043750       0.548997      -1.395238
      -0.106163       0.612327      -1.365205
      -0.267039       0.633927      -1.332976
      -0.427915       0.612327      -1.300748
      -0.577828       0.548997      -1.270715
      -0.706560       0.448254      -1.244926
      -0.805341       0.316964      -1.225137
      -0.867436       0.164073      -1.212697
      -0.888616      -0.000000      -1.208454
      -0.867436      -0.164073      -1.212697
      -0.805341      -0.316964      -1.225137
      -0.706560      -0.448254      -1.244926
      -0.577828      -0.548997      -1.270715
      -0.427915      -0.612327      -1.300748
      -0.267039      -0.633927      -1.332976
      -0.106163      -0.612327      -1.365205
       0.043749      -0.548997      -1.395238
       0.172482      -0.448254      -1.421027
       0.271262      -0.316964      -1.440816
       0.333358      -0.164073      -1.453256
       0.226160       0.000000      -1.482853
       0.209019       0.132782      -1.479419
       0.158766       0.256515      -1.469351
       0.078824       0.362767      -1.453336
      -0.025358       0.444297      -1.432465
      -0.146681       0.495549      -1.408161
      -0.276876       0.513030      -1.382078
      -0.407071       0.495549      -1.355996
      -0.528393       0.444297      -1.331691
      -0.632575       0.362767      -1.310820
      -0.712517       0.256515      -1.294805
      -0.762771       0.132782      -1.284737
      -0.779911      -0.000000      -1.281304
      -0.762771      -0.132782      -1.284737
      -0.712517      -0.256515      -1.294805
      -0.632575      -0.362767      -1.310820
      -0.528393      -0.444297      -1.331691
      -0.407071      -0.495549      -1.355996
      -0.276876      -0.513030      -1.382078
      -0.146681      -0.495549      -1.408161
      -0.025358      -0.444297      -1.432465
       0.078824      -0.362767      -1.453336
       0.158766      -0.256515      -1.469351
       0.209019      -0.132782      -1.479419
       0.096060       0.000000      -1.496921
       0.083089       0.100481      -1.494323
       0.045060       0.194114      -1.486704
      -0.015434       0.274519      -1.474585
      -0.094273       0.336216      -1.458791
      -0.186082       0.375000      -1.440399
      -0.284605       0.388229      -1.420661
      -0.383129       0.375000      -1.400924
      -0.474938       0.336216      -1.382531
      -0.553776       0.274519      -1.366738
      -0.614271       0.194114      -1.354618
      -0.652299       0.100481      -1.347000
      -0.665270      -0.000000      -1.344402
      -0.652299      -0.100481      -1.347000
      -0.614271      -0.194114      -1.354618
      -0.553776      -0.274519      -1.366738
      -0.474938      -0.336216      -1.382532
      -0.383129      -0.375000      -1.400924
      -0.284605      -0.388229      -1.420661
      -0.186082      -0.375000      -1.440399
      -0.094273      -0.336216      -1.458791
      -0.015434      -0.274519      -1.474585
       0.045060      -0.194114      -1.486704
       0.083089      -0.100481      -1.494323
      -0.034771       0.000000      -1.499597
      -0.043473       0.067415      -1.497854
      -0.068988       0.130236      -1.492742
      -0.109575       0.184182      -1.484611
      -0.162470       0.225576      -1.474015
      -0.224067       0.251597      -1.461675
      -0.290169       0.260472      -1.448432
      -0.356270       0.251597      -1.435190
      -0.417868       0.225576      -1.422850
      -0.470762       0.184182      -1.412253
      -0.511350       0.130236      -1.404123
      -0.536864       0.067415      -1.399011
      -0.545566      -0.000000      -1.397268
      -0.536864      -0.067415      -1.399011
      -0.511350      -0.130236      -1.404123
      -0.470762      -0.184182      -1.412253
      -0.417868      -0.225576      -1.422850
      -0.356270      -0.251597      -1.435190
      -0.290169      -0.260472      -1.448432
      -0.224067      -0.251597      -1.461675
      -0.162470      -0.225576      -1.474015
      -0.109575      -0.184182      -1.484611
      -0.068988      -0.130236      -1.492742
      -0.043473      -0.067415      -1.497854
      -0.165337       0.000000      -1.490860
      -0.169705       0.033836      -1.489985
      -0.182511       0.065367      -1.487420
      -0.202882       0.092443      -1.483339
      -0.229430       0.113219      -1.478020
      -0.260347       0.126279      -1.471827
      -0.293524       0.130734      -1.465180
      -0.326701       0.126279      -1.458534
      -0.357617       0.113219      -1.452340
      -0.384165       0.092443      -1.447021
      -0.404537       0.065367      -1.442940
      -0.417343       0.033836      -1.440375
      -0.421710      -0.000000      -1.439500
      -0.417343      -0.033836      -1.440375
      -0.404537      -0.065367      -1.442940
      -0.384165      -0.092443      -1.447021
      -0.357617      -0.113219      -1.452340
      -0.326701      -0.126279      -1.458534
      -0.293524      -0.130734      -1.465180
      -0.260347      -0.126279      -1.471827
      -0.229430      -0.113219      -1.478020
      -0.202882      -0.092443      -1.483338
      -0.182511      -0.065367      -1.487420
      -0.169705      -0.033836      -1.489985
VERTICES      288     576
 1        0
 1        1
 1        2
 1        3
 1        4
 1        5
 1        6
 1        7
 1        8
 1        9
 1       10
 1       11
 1       12
 1       13
 1       14
 1       15
 1       16
 1       17
 1       18
 1       19
 1       20
 1       21
 1       22
 1       23
 1       24
 1       25
 1       26
 1       27
 1       28
 1       29
 1       30
 1       31
 1       32
 1       33
 1       34
 1       35
 1       36
 1       37
 1       38
 1       39
 1       40
 1       41
 1       42
 1       43
 1       44
 1       45
 1       46
 1       47
 1       48
 1       49
 1       50
 1       51
 1       52
 1       53
 1       54
 1       55
 1       56
 1       57
 1       58
 1       59
 1       60
 1       61
 1       62
 1       63
 1       64
 1       65
 1       66
 1       67
 1       68
 1       69
 1       70
 1       71
 1       72
 1       73
 1       74
 1       75
 1       76
 1       77
 1       78
 1       79
 1       80
 1       81
 1       82
 1       83
 1       84
 1       85
 1       86
 1       87
 1       88
 1       89
 1       90
 1       91
 1       92
 1       93
 1       94
 1       95
 1       96
 1       97
 1       98
 1       99
 1      100
 1      101
 1      102
 1      103
 1      104
 1      105
 1      106
 1      107
 1      108
 1      109
 1      110
 1      111
 1      112
 1      113
 1      114
 1      115
 1      116
 1      117
 1      118
 1      119
 1      120
 1      121
 1      122
 1      123
 1      124
 1      125
 1      126
 1      127
 1      128
 1      129
 1      130
 1      131
 1      132
 1      133
 1      134
 1      135
 1      136
 1      137
 1      138
 1      139
 1      140
 1      141
 1      142
 1      143
 1      144
 1      145
 1      146
 1      147
 1      148
 1      149
 1      150
 1      151
 1      152
 1      153
 1      154
 1      155
 1      156
 1      157
 1      158
 1      159
 1      160
 1      161
 1      162
 1      163
 1      164
 1      165
 1      166
 1      167
 1      168
 1      169
 1      170
 1      171
 1      172
 1      173
 1      174
 1      175
 1      176
 1      177
 1      178
 1      179
 1      180
 1      181
 1      182
 1      183
 1      184
 1      185
 1      186
 1      187
 1      188
 1      189
 1      190
 1      191
 1      192
 1      193
 1      194
 1      195
 1      196
 1      197
 1      198
 1      199
 1      200
 1      201
 1      202
 1      203
 1      204
 1      205
 1      206
 1      207
 1      208
 1      209
 1      210
 1      211
 1      212
 1      213
 1      214
 1      215
 1      216
 1      217
 1      218
 1      219
 1      220
 1      221
 1      222
 1      223
 1      224
 1      225
 1      226
 1      227
 1      228
 1      229
 1      230
 1      231
 1      232
 1      233
 1      234
 1      235
 1      236
 1      237
 1      238
 1      239
 1      240
 1      241
 1      242
 1      243
 1      244
 1      245
 1      246
 1      247
 1      248
 1      249
 1      250
 1      251
 1      252
 1      253
 1      254
 1      255
 1      256
 1      257
 1      258
 1      259
 1      260
 1      261
 1      262
 1      263
 1      264
 1      265
 1      266
 1      267
 1      268
 1      269
 1      270
 1      271
 1      272
 1      273
 1      274
 1      275
 1      276
 1      277
 1      278
 1      279
 1      280
 1      281
 1      282
 1      283
 1      284
 1      285
 1      286
 1      287
POINT_DATA      288
SCALARS hemisphere int 1
LOOKUP_TABLE default
 1
 1
 1
 1
 1
 1
 1
 1
 1
 1
 1
 1
 1
 1
 1
 1
 1
 1
 1
 1
 1
 1
 1
 1
 1
 1
 1
 1
 1
 1
 1
 1
 1
 1
 1
 1
 1
 1
 1
 1
 1
 1
 1
 1
 1
 1
 1
 1
 1
 1
 1
 1
 1
 1
 1
 1
 1
 1
 1
 1
 1
 1
 1
 1
 1
 1
 1
 1
 1
 1
 1
 1
 1
 1
 1
 1
 1
 1
 1
 1
 1
 1
 1
 1
 1
 1
 1
 1
 1
 1
 1
 1
 1
 1
 1
 1
 1
 1
 1
 1
 1
 1
 1
 1
 1
 1
 1
 1
 1
 1
 1
 1
 1
 1
 1
 1
 1
 1
 1
 1
 1
 1
 1
 1
 1
 1
 1
 1
 1
 1
 1
 1
 1
 1
 1
 1
 1
 1
 1
 1
 1
 1
 1
 1
-1
-1
-1
-1
-1
-1
-1
-1
-1
-1
-1
-1
-1
-1
-1
-1
-1
-1
-1
-1
-1
-1
-1
-1
-1
-1
-1
-1
-1
-1
-1
-1
-1
-1
-1
-1
-1
-1
-1
-1
-1
-1
-1
-1
-1
-1
-1
-1
-1
-1
-1
-1
-1
-1
-1
-1
-1
-1
-1
-1
-1
-1
-1
-1
-1
-1
-1
-1
-1
-1
-1
-1
-1
-1
-1
-1
-1
-1
-1
-1
-1
-1
-1
-1
-1
-1
-1
-1
-1
-1
-1
-1
-1
-1
-1
-1
-1
-1
-1
-1
-1
-1
-1
-1
-1
-1
-1
-1
-1
-1
-1
-1
-1
-1
-1
-1
-1
-1
-1
-1
-1
-1
-1
-1
-1
-1
-1
-1
-1
-1
-1
-1
-1
-1
-1
-1
-1
-1
-1
-1
-1
-1
-1
-1
