# vtk DataFile Version 3.0
SM polar seed points transformed to GSW coordinates
ASCII
DATASET POLYDATA
POINTS      288 float
       1.116542       0.000000       1.001666
       1.092251       0.194114       1.009607
       1.021035       0.375000       1.032890
       0.907747       0.530330       1.069928
       0.760107       0.649519       1.118196
       0.588176       0.724444       1.174406
       0.403672       0.750000       1.234726
       0.219168       0.724444       1.295047
       0.047237       0.649519       1.351256
      -0.100403       0.530330       1.399525
      -0.213691       0.375000       1.436562
      -0.284907       0.194114       1.459845
      -0.309197      -0.000000       1.467787
      -0.284907      -0.194114       1.459845
      -0.213691      -0.375000       1.436562
      -0.100403      -0.530330       1.399525
       0.047238      -0.649519       1.351256
       0.219168      -0.724444       1.295047
       0.403672      -0.750000       1.234726
       0.588176      -0.724444       1.174406
       0.760107      -0.649519       1.118196
       0.907747      -0.530330       1.069928
       1.021035      -0.375000       1.032890
       1.092251      -0.194114       1.009607
       1.024992       0.000000       1.095167
       1.004461       0.164072       1.101880
       0.944266       0.316964       1.121559
       0.848511       0.448254       1.152865
       0.723720       0.548997       1.193663
       0.578398       0.612327       1.241173
       0.422449       0.633927       1.292158
       0.266499       0.612327       1.343143
       0.121177       0.548997       1.390654
      -0.003614       0.448254       1.431452
      -0.099369       0.316964       1.462758
      -0.159564       0.164073       1.482437
      -0.180095      -0.000000       1.489149
      -0.159564      -0.164073       1.482437
      -0.099369      -0.316964       1.462758
      -0.003614      -0.448254       1.431452
       0.121177      -0.548997       1.390654
       0.266499      -0.612327       1.343143
       0.422449      -0.633927       1.292158
       0.578398      -0.612327       1.241173
       0.723720      -0.548997       1.193663
       0.848511      -0.448254       1.152865
       0.944266      -0.316964       1.121559
       1.004461      -0.164073       1.101880
       0.925641       0.000000       1.180334
       0.909026       0.132782       1.185766
       0.860311       0.256515       1.201692
       0.782818       0.362767       1.227028
       0.681826       0.444297       1.260045
       0.564218       0.495549       1.298495
       0.438010       0.513030       1.339756
       0.311802       0.495549       1.381018
       0.194194       0.444297       1.419468
       0.093202       0.362767       1.452485
       0.015709       0.256515       1.477821
      -0.033006       0.132782       1.493747
      -0.049621      -0.000000       1.499179
      -0.033006      -0.132782       1.493747
       0.015709      -0.256515       1.477821
       0.093202      -0.362767       1.452485
       0.194194      -0.444297       1.419468
       0.311802      -0.495549       1.381018
       0.438010      -0.513030       1.339756
       0.564218      -0.495549       1.298495
       0.681826      -0.444297       1.260045
       0.782817      -0.362767       1.227028
       0.860311      -0.256515       1.201692
       0.909026      -0.132782       1.185766
       0.819246       0.000000       1.256517
       0.806673       0.100481       1.260628
       0.769809       0.194114       1.272680
       0.711166       0.274519       1.291852
       0.634742       0.336216       1.316838
       0.545744       0.375000       1.345934
       0.450238       0.388229       1.377158
       0.354731       0.375000       1.408382
       0.265734       0.336216       1.437479
       0.189309       0.274519       1.462464
       0.130667       0.194114       1.481636
       0.093803       0.100481       1.493688
       0.081229      -0.000000       1.497799
       0.093803      -0.100481       1.493688
       0.130667      -0.194114       1.481636
       0.189309      -0.274519       1.462464
       0.265734      -0.336216       1.437479
       0.354731      -0.375000       1.408382
       0.450238      -0.388229       1.377158
       0.545744      -0.375000       1.345934
       0.634742      -0.336216       1.316838
       0.711166      -0.274519       1.291852
       0.769808      -0.194114       1.272680
       0.806673      -0.100481       1.260628
       0.706616       0.000000       1.323138
       0.698180       0.067415       1.325896
       0.673447       0.130236       1.333982
       0.634102       0.184182       1.346845
       0.582828       0.225576       1.363608
       0.523117       0.251597       1.383130
       0.459039       0.260472       1.404079
       0.394961       0.251597       1.425028
       0.335251       0.225576       1.444549
       0.283976       0.184182       1.461313
       0.244631       0.130236       1.474176
       0.219898       0.067415       1.482262
       0.211462      -0.000000       1.485020
       0.219898      -0.067415       1.482262
       0.244631      -0.130236       1.474176
       0.283976      -0.184182       1.461313
       0.335251      -0.225576       1.444549
       0.394961      -0.251597       1.425028
       0.459039      -0.260472       1.404079
       0.523117      -0.251597       1.383130
       0.582828      -0.225576       1.363608
       0.634102      -0.184182       1.346845
       0.673447      -0.130236       1.333982
       0.698180      -0.067415       1.325896
       0.588608       0.000000       1.379689
       0.584374       0.033836       1.381073
       0.571960       0.065367       1.385131
       0.552213       0.092443       1.391587
       0.526477       0.113219       1.400001
       0.496508       0.126279       1.409799
       0.464347       0.130734       1.420314
       0.432186       0.126279       1.430828
       0.402216       0.113219       1.440626
       0.376481       0.092443       1.449040
       0.356733       0.065367       1.455496
       0.344319       0.033836       1.459554
       0.340085      -0.000000       1.460939
       0.344319      -0.033836       1.459554
       0.356733      -0.065367       1.455496
       0.376481      -0.092443       1.449040
       0.402216      -0.113219       1.440626
       0.432186      -0.126279       1.430828
       0.464347      -0.130734       1.420314
       0.496508      -0.126279       1.409799
       0.526477      -0.113219       1.400001
       0.552213      -0.092443       1.391587
       0.571960      -0.065367       1.385131
       0.584374      -0.033836       1.381073
       0.309197       0.000000      -1.467787
       0.284907       0.194114      -1.459845
       0.213691       0.375000      -1.436562
       0.100403       0.530330      -1.399525
      -0.047238       0.649519      -1.351256
      -0.219168       0.724444      -1.295047
      -0.403672       0.750000      -1.234726
      -0.588176       0.724444      -1.174406
      -0.760107       0.649519      -1.118196
      -0.907747       0.530330      -1.069928
      -1.021035       0.375000      -1.032890
      -1.092251       0.194114      -1.009607
      -1.116542      -0.000000      -1.001666
      -1.092251      -0.194114      -1.009607
      -1.021035      -0.375000      -1.032890
      -0.907747      -0.530330      -1.069928
      -0.760107      -0.649519      -1.118196
      -0.588176      -0.724444      -1.174406
      -0.403672      -0.750000      -1.234726
      -0.219168      -0.724444      -1.295047
      -0.047238      -0.649519      -1.351256
       0.100403      -0.530330      -1.399525
       0.213691      -0.375000      -1.436562
       0.284907      -0.194114      -1.459845
       0.180095       0.000000      -1.489149
       0.159564       0.164072      -1.482437
       0.099369       0.316964      -1.462758
       0.003614       0.448254      -1.431452
      -0.121177       0.548997      -1.390654
      -0.266499       0.612327      -1.343143
      -0.422449       0.633927      -1.292158
      -0.578398       0.612327      -1.241173
      -0.723720       0.548997      -1.193663
      -0.848511       0.448254      -1.152865
      -0.944266       0.316964      -1.121559
      -1.004461       0.164073      -1.101880
      -1.024992      -0.000000      -1.095167
      -1.004461      -0.164073      -1.101880
      -0.944266      -0.316964      -1.121559
      -0.848511      -0.448254      -1.152865
      -0.723720      -0.548997      -1.193663
      -0.578398      -0.612327      -1.241173
      -0.422449      -0.633927      -1.292158
      -0.266499      -0.612327      -1.343143
      -0.121177      -0.548997      -1.390654
       0.003614      -0.448254      -1.431452
       0.099369      -0.316964      -1.462758
       0.159564      -0.164073      -1.482437
       0.049621       0.000000      -1.499179
       0.033006       0.132782      -1.493747
      -0.015709       0.256515      -1.477821
      -0.093202       0.362767      -1.452485
      -0.194194       0.444297      -1.419468
      -0.311802       0.495549      -1.381018
      -0.438010       0.513030      -1.339756
      -0.564218       0.495549      -1.298495
      -0.681826       0.444297      -1.260045
      -0.782818       0.362767      -1.227028
      -0.860311       0.256515      -1.201692
      -0.909026       0.132782      -1.185766
      -0.925641      -0.000000      -1.180334
      -0.909026      -0.132782      -1.185766
      -0.860311      -0.256515      -1.201692
      -0.782818      -0.362767      -1.227028
      -0.681826      -0.444297      -1.260045
      -0.564218      -0.495549      -1.298495
      -0.438010      -0.513030      -1.339756
      -0.311802      -0.495549      -1.381018
      -0.194194      -0.444297      -1.419468
      -0.093203      -0.362767      -1.452485
      -0.015709      -0.256515      -1.477821
       0.033006      -0.132782      -1.493747
      -0.081229       0.000000      -1.497799
      -0.093803       0.100481      -1.493688
      -0.130667       0.194114      -1.481636
      -0.189309       0.274519      -1.462464
      -0.265734       0.336216      -1.437479
      -0.354731       0.375000      -1.408382
      -0.450238       0.388229      -1.377158
      -0.545744       0.375000      -1.345934
      -0.634742       0.336216      -1.316838
      -0.711166       0.274519      -1.291852
      -0.769809       0.194114      -1.272680
      -0.806673       0.100481      -1.260628
      -0.819246      -0.000000      -1.256517
      -0.806673      -0.100481      -1.260628
      -0.769809      -0.194114      -1.272680
      -0.711166      -0.274519      -1.291852
      -0.634742      -0.336216      -1.316838
      -0.545744      -0.375000      -1.345934
      -0.450238      -0.388229      -1.377158
      -0.354731      -0.375000      -1.408382
      -0.265734      -0.336216      -1.437479
      -0.189310      -0.274519      -1.462464
      -0.130667      -0.194114      -1.481636
      -0.093803      -0.100481      -1.493688
      -0.211462       0.000000      -1.485020
      -0.219898       0.067415      -1.482262
      -0.244631       0.130236      -1.474176
      -0.283976       0.184182      -1.461313
      -0.335251       0.225576      -1.444549
      -0.394961       0.251597      -1.425028
      -0.459039       0.260472      -1.404079
      -0.523117       0.251597      -1.383130
      -0.582828       0.225576      -1.363608
      -0.634102       0.184182      -1.346845
      -0.673447       0.130236      -1.333982
      -0.698180       0.067415      -1.325896
      -0.706616      -0.000000      -1.323138
      -0.698180      -0.067415      -1.325896
      -0.673447      -0.130236      -1.333982
      -0.634102      -0.184182      -1.346845
      -0.582828      -0.225576      -1.363608
      -0.523117      -0.251597      -1.383130
      -0.459039      -0.260472      -1.404079
      -0.394961      -0.251597      -1.425028
      -0.335251      -0.225576      -1.444549
      -0.283976      -0.184182      -1.461313
      -0.244631      -0.130236      -1.474176
      -0.219898      -0.067415      -1.482262
      -0.340085       0.000000      -1.460939
      -0.344319       0.033836      -1.459554
      -0.356733       0.065367      -1.455496
      -0.376481       0.092443      -1.449040
      -0.402216       0.113219      -1.440626
      -0.432186       0.126279      -1.430828
      -0.464347       0.130734      -1.420314
      -0.496508       0.126279      -1.409799
      -0.526477       0.113219      -1.400001
      -0.552213       0.092443      -1.391587
      -0.571960       0.065367      -1.385131
      -0.584374       0.033836      -1.381073
      -0.588608      -0.000000      -1.379689
      -0.584374      -0.033836      -1.381073
      -0.571960      -0.065367      -1.385131
      -0.552213      -0.092443      -1.391587
      -0.526477      -0.113219      -1.400001
      -0.496508      -0.126279      -1.409799
      -0.464347      -0.130734      -1.420314
      -0.432186      -0.126279      -1.430828
      -0.402216      -0.113219      -1.440626
      -0.376481      -0.092443      -1.449040
      -0.356733      -0.065367      -1.455496
      -0.344319      -0.033836      -1.459554
VERTICES      288     576
 1        0
 1        1
 1        2
 1        3
 1        4
 1        5
 1        6
 1        7
 1        8
 1        9
 1       10
 1       11
 1       12
 1       13
 1       14
 1       15
 1       16
 1       17
 1       18
 1       19
 1       20
 1       21
 1       22
 1       23
 1       24
 1       25
 1       26
 1       27
 1       28
 1       29
 1       30
 1       31
 1       32
 1       33
 1       34
 1       35
 1       36
 1       37
 1       38
 1       39
 1       40
 1       41
 1       42
 1       43
 1       44
 1       45
 1       46
 1       47
 1       48
 1       49
 1       50
 1       51
 1       52
 1       53
 1       54
 1       55
 1       56
 1       57
 1       58
 1       59
 1       60
 1       61
 1       62
 1       63
 1       64
 1       65
 1       66
 1       67
 1       68
 1       69
 1       70
 1       71
 1       72
 1       73
 1       74
 1       75
 1       76
 1       77
 1       78
 1       79
 1       80
 1       81
 1       82
 1       83
 1       84
 1       85
 1       86
 1       87
 1       88
 1       89
 1       90
 1       91
 1       92
 1       93
 1       94
 1       95
 1       96
 1       97
 1       98
 1       99
 1      100
 1      101
 1      102
 1      103
 1      104
 1      105
 1      106
 1      107
 1      108
 1      109
 1      110
 1      111
 1      112
 1      113
 1      114
 1      115
 1      116
 1      117
 1      118
 1      119
 1      120
 1      121
 1      122
 1      123
 1      124
 1      125
 1      126
 1      127
 1      128
 1      129
 1      130
 1      131
 1      132
 1      133
 1      134
 1      135
 1      136
 1      137
 1      138
 1      139
 1      140
 1      141
 1      142
 1      143
 1      144
 1      145
 1      146
 1      147
 1      148
 1      149
 1      150
 1      151
 1      152
 1      153
 1      154
 1      155
 1      156
 1      157
 1      158
 1      159
 1      160
 1      161
 1      162
 1      163
 1      164
 1      165
 1      166
 1      167
 1      168
 1      169
 1      170
 1      171
 1      172
 1      173
 1      174
 1      175
 1      176
 1      177
 1      178
 1      179
 1      180
 1      181
 1      182
 1      183
 1      184
 1      185
 1      186
 1      187
 1      188
 1      189
 1      190
 1      191
 1      192
 1      193
 1      194
 1      195
 1      196
 1      197
 1      198
 1      199
 1      200
 1      201
 1      202
 1      203
 1      204
 1      205
 1      206
 1      207
 1      208
 1      209
 1      210
 1      211
 1      212
 1      213
 1      214
 1      215
 1      216
 1      217
 1      218
 1      219
 1      220
 1      221
 1      222
 1      223
 1      224
 1      225
 1      226
 1      227
 1      228
 1      229
 1      230
 1      231
 1      232
 1      233
 1      234
 1      235
 1      236
 1      237
 1      238
 1      239
 1      240
 1      241
 1      242
 1      243
 1      244
 1      245
 1      246
 1      247
 1      248
 1      249
 1      250
 1      251
 1      252
 1      253
 1      254
 1      255
 1      256
 1      257
 1      258
 1      259
 1      260
 1      261
 1      262
 1      263
 1      264
 1      265
 1      266
 1      267
 1      268
 1      269
 1      270
 1      271
 1      272
 1      273
 1      274
 1      275
 1      276
 1      277
 1      278
 1      279
 1      280
 1      281
 1      282
 1      283
 1      284
 1      285
 1      286
 1      287
POINT_DATA      288
SCALARS hemisphere int 1
LOOKUP_TABLE default
 1
 1
 1
 1
 1
 1
 1
 1
 1
 1
 1
 1
 1
 1
 1
 1
 1
 1
 1
 1
 1
 1
 1
 1
 1
 1
 1
 1
 1
 1
 1
 1
 1
 1
 1
 1
 1
 1
 1
 1
 1
 1
 1
 1
 1
 1
 1
 1
 1
 1
 1
 1
 1
 1
 1
 1
 1
 1
 1
 1
 1
 1
 1
 1
 1
 1
 1
 1
 1
 1
 1
 1
 1
 1
 1
 1
 1
 1
 1
 1
 1
 1
 1
 1
 1
 1
 1
 1
 1
 1
 1
 1
 1
 1
 1
 1
 1
 1
 1
 1
 1
 1
 1
 1
 1
 1
 1
 1
 1
 1
 1
 1
 1
 1
 1
 1
 1
 1
 1
 1
 1
 1
 1
 1
 1
 1
 1
 1
 1
 1
 1
 1
 1
 1
 1
 1
 1
 1
 1
 1
 1
 1
 1
 1
-1
-1
-1
-1
-1
-1
-1
-1
-1
-1
-1
-1
-1
-1
-1
-1
-1
-1
-1
-1
-1
-1
-1
-1
-1
-1
-1
-1
-1
-1
-1
-1
-1
-1
-1
-1
-1
-1
-1
-1
-1
-1
-1
-1
-1
-1
-1
-1
-1
-1
-1
-1
-1
-1
-1
-1
-1
-1
-1
-1
-1
-1
-1
-1
-1
-1
-1
-1
-1
-1
-1
-1
-1
-1
-1
-1
-1
-1
-1
-1
-1
-1
-1
-1
-1
-1
-1
-1
-1
-1
-1
-1
-1
-1
-1
-1
-1
-1
-1
-1
-1
-1
-1
-1
-1
-1
-1
-1
-1
-1
-1
-1
-1
-1
-1
-1
-1
-1
-1
-1
-1
-1
-1
-1
-1
-1
-1
-1
-1
-1
-1
-1
-1
-1
-1
-1
-1
-1
-1
-1
-1
-1
-1
-1
