# vtk DataFile Version 3.0
SM polar seed points transformed to GSW coordinates
ASCII
DATASET POLYDATA
POINTS      288 float
       1.064442       0.000000       1.056865
       1.039781       0.194114       1.063568
       0.967478       0.375000       1.083218
       0.852461       0.530330       1.114478
       0.702568       0.649519       1.155216
       0.528015       0.724444       1.202656
       0.340695       0.750000       1.253566
       0.153376       0.724444       1.304476
      -0.021178       0.649519       1.351916
      -0.171071       0.530330       1.392654
      -0.286088       0.375000       1.423913
      -0.358390       0.194114       1.443564
      -0.383051      -0.000000       1.450266
      -0.358390      -0.194114       1.443564
      -0.286088      -0.375000       1.423913
      -0.171071      -0.530330       1.392654
      -0.021178      -0.649519       1.351916
       0.153376      -0.724444       1.304476
       0.340695      -0.750000       1.253566
       0.528015      -0.724444       1.202656
       0.702568      -0.649519       1.155216
       0.852461      -0.530330       1.114478
       0.967478      -0.375000       1.083218
       1.039780      -0.194114       1.063568
       0.968279       0.000000       1.145616
       0.947435       0.164072       1.151281
       0.886322       0.316964       1.167890
       0.789106       0.448254       1.194312
       0.662411       0.548997       1.228745
       0.514872       0.612327       1.268843
       0.356542       0.633927       1.311874
       0.198213       0.612327       1.354905
       0.050674       0.548997       1.395003
      -0.076021       0.448254       1.429437
      -0.173237       0.316964       1.455858
      -0.234350       0.164073       1.472467
      -0.255195      -0.000000       1.478132
      -0.234350      -0.164073       1.472467
      -0.173237      -0.316964       1.455858
      -0.076021      -0.448254       1.429437
       0.050674      -0.548997       1.395003
       0.198213      -0.612327       1.354905
       0.356542      -0.633927       1.311874
       0.514871      -0.612327       1.268843
       0.662411      -0.548997       1.228745
       0.789106      -0.448254       1.194312
       0.886322      -0.316964       1.167890
       0.947435      -0.164073       1.151281
       0.864748       0.000000       1.225647
       0.847879       0.132782       1.230232
       0.798421       0.256515       1.243674
       0.719745       0.362767       1.265056
       0.617212       0.444297       1.292923
       0.497810       0.495549       1.325374
       0.369676       0.513030       1.360198
       0.241542       0.495549       1.395023
       0.122140       0.444297       1.427474
       0.019607       0.362767       1.455340
      -0.059069       0.256515       1.476723
      -0.108527       0.132782       1.490165
      -0.125396      -0.000000       1.494750
      -0.108527      -0.132782       1.490165
      -0.059069      -0.256515       1.476723
       0.019607      -0.362767       1.455340
       0.122140      -0.444297       1.427474
       0.241542      -0.495549       1.395023
       0.369676      -0.513030       1.360198
       0.497810      -0.495549       1.325374
       0.617212      -0.444297       1.292923
       0.719745      -0.362767       1.265056
       0.798421      -0.256515       1.243674
       0.847879      -0.132782       1.230232
       0.754635       0.000000       1.296351
       0.741869       0.100481       1.299821
       0.704443       0.194114       1.309992
       0.644906       0.274519       1.326173
       0.567316       0.336216       1.347261
       0.476960       0.375000       1.371818
       0.379996       0.388229       1.398171
       0.283033       0.375000       1.424524
       0.192677       0.336216       1.449081
       0.115087       0.274519       1.470168
       0.055549       0.194114       1.486349
       0.018123       0.100481       1.496521
       0.005357      -0.000000       1.499990
       0.018123      -0.100481       1.496521
       0.055549      -0.194114       1.486349
       0.115087      -0.274519       1.470168
       0.192677      -0.336216       1.449081
       0.283033      -0.375000       1.424524
       0.379996      -0.388229       1.398171
       0.476960      -0.375000       1.371818
       0.567315      -0.336216       1.347261
       0.644906      -0.274519       1.326173
       0.704443      -0.194114       1.309992
       0.741869      -0.100481       1.299821
       0.638779       0.000000       1.357189
       0.630214       0.067415       1.359517
       0.605104       0.130236       1.366341
       0.565159       0.184182       1.377197
       0.513102       0.225576       1.391346
       0.452480       0.251597       1.407821
       0.387424       0.260472       1.425502
       0.322369       0.251597       1.443183
       0.261747       0.225576       1.459659
       0.209690       0.184182       1.473807
       0.169745       0.130236       1.484663
       0.144634       0.067415       1.491488
       0.136070      -0.000000       1.493816
       0.144634      -0.067415       1.491488
       0.169745      -0.130236       1.484663
       0.209690      -0.184182       1.473807
       0.261747      -0.225576       1.459659
       0.322369      -0.251597       1.443183
       0.387424      -0.260472       1.425502
       0.452480      -0.251597       1.407821
       0.513102      -0.225576       1.391346
       0.565159      -0.184182       1.377197
       0.605104      -0.130236       1.366341
       0.630214      -0.067415       1.359517
       0.518061       0.000000       1.407698
       0.513763       0.033836       1.408866
       0.501159       0.065367       1.412291
       0.481111       0.092443       1.417740
       0.454983       0.113219       1.424841
       0.424556       0.126279       1.433111
       0.391904       0.130734       1.441985
       0.359252       0.126279       1.450859
       0.328825       0.113219       1.459128
       0.302697       0.092443       1.466229
       0.282648       0.065367       1.471678
       0.270045       0.033836       1.475104
       0.265747      -0.000000       1.476272
       0.270045      -0.033836       1.475104
       0.282648      -0.065367       1.471678
       0.302697      -0.092443       1.466229
       0.328825      -0.113219       1.459128
       0.359252      -0.126279       1.450859
       0.391904      -0.130734       1.441985
       0.424556      -0.126279       1.433111
       0.454983      -0.113219       1.424841
       0.481111      -0.092443       1.417740
       0.501159      -0.065367       1.412291
       0.513763      -0.033836       1.408866
       0.383051       0.000000      -1.450266
       0.358390       0.194114      -1.443564
       0.286088       0.375000      -1.423913
       0.171071       0.530330      -1.392654
       0.021178       0.649519      -1.351916
      -0.153376       0.724444      -1.304476
      -0.340695       0.750000      -1.253566
      -0.528015       0.724444      -1.202656
      -0.702568       0.649519      -1.155216
      -0.852461       0.530330      -1.114478
      -0.967478       0.375000      -1.083218
      -1.039780       0.194114      -1.063568
      -1.064442      -0.000000      -1.056865
      -1.039781      -0.194114      -1.063568
      -0.967478      -0.375000      -1.083218
      -0.852461      -0.530330      -1.114478
      -0.702568      -0.649519      -1.155216
      -0.528015      -0.724444      -1.202656
      -0.340695      -0.750000      -1.253566
      -0.153376      -0.724444      -1.304476
       0.021178      -0.649519      -1.351916
       0.171071      -0.530330      -1.392654
       0.286087      -0.375000      -1.423913
       0.358390      -0.194114      -1.443564
       0.255195       0.000000      -1.478132
       0.234350       0.164072      -1.472467
       0.173237       0.316964      -1.455858
       0.076021       0.448254      -1.429437
      -0.050674       0.548997      -1.395003
      -0.198213       0.612327      -1.354905
      -0.356542       0.633927      -1.311874
      -0.514871       0.612327      -1.268843
      -0.662411       0.548997      -1.228745
      -0.789106       0.448254      -1.194312
      -0.886322       0.316964      -1.167890
      -0.947435       0.164073      -1.151281
      -0.968279      -0.000000      -1.145616
      -0.947435      -0.164073      -1.151281
      -0.886322      -0.316964      -1.167890
      -0.789106      -0.448254      -1.194312
      -0.662411      -0.548997      -1.228745
      -0.514871      -0.612327      -1.268843
      -0.356542      -0.633927      -1.311874
      -0.198213      -0.612327      -1.354905
      -0.050674      -0.548997      -1.395003
       0.076021      -0.448254      -1.429437
       0.173237      -0.316964      -1.455858
       0.234350      -0.164073      -1.472467
       0.125396       0.000000      -1.494750
       0.108527       0.132782      -1.490165
       0.059069       0.256515      -1.476723
      -0.019607       0.362767      -1.455340
      -0.122140       0.444297      -1.427474
      -0.241542       0.495549      -1.395023
      -0.369676       0.513030      -1.360198
      -0.497810       0.495549      -1.325374
      -0.617212       0.444297      -1.292923
      -0.719745       0.362767      -1.265056
      -0.798421       0.256515      -1.243674
      -0.847879       0.132782      -1.230232
      -0.864748      -0.000000      -1.225647
      -0.847879      -0.132782      -1.230232
      -0.798421      -0.256515      -1.243674
      -0.719745      -0.362767      -1.265056
      -0.617212      -0.444297      -1.292923
      -0.497810      -0.495549      -1.325374
      -0.369676      -0.513030      -1.360198
      -0.241542      -0.495549      -1.395023
      -0.122140      -0.444297      -1.427474
      -0.019607      -0.362767      -1.455340
       0.059069      -0.256515      -1.476723
       0.108527      -0.132782      -1.490165
      -0.005357       0.000000      -1.499990
      -0.018123       0.100481      -1.496521
      -0.055549       0.194114      -1.486349
      -0.115087       0.274519      -1.470168
      -0.192677       0.336216      -1.449081
      -0.283032       0.375000      -1.424524
      -0.379996       0.388229      -1.398171
      -0.476960       0.375000      -1.371818
      -0.567316       0.336216      -1.347261
      -0.644906       0.274519      -1.326173
      -0.704443       0.194114      -1.309992
      -0.741869       0.100481      -1.299821
      -0.754635      -0.000000      -1.296351
      -0.741869      -0.100481      -1.299821
      -0.704443      -0.194114      -1.309992
      -0.644906      -0.274519      -1.326173
      -0.567315      -0.336216      -1.347261
      -0.476960      -0.375000      -1.371818
      -0.379996      -0.388229      -1.398171
      -0.283033      -0.375000      -1.424524
      -0.192677      -0.336216      -1.449081
      -0.115087      -0.274519      -1.470168
      -0.055549      -0.194114      -1.486349
      -0.018123      -0.100481      -1.496521
      -0.136070       0.000000      -1.493816
      -0.144634       0.067415      -1.491488
      -0.169745       0.130236      -1.484663
      -0.209690       0.184182      -1.473807
      -0.261747       0.225576      -1.459659
      -0.322369       0.251597      -1.443183
      -0.387424       0.260472      -1.425502
      -0.452480       0.251597      -1.407821
      -0.513102       0.225576      -1.391346
      -0.565159       0.184182      -1.377197
      -0.605104       0.130236      -1.366341
      -0.630214       0.067415      -1.359517
      -0.638779      -0.000000      -1.357189
      -0.630214      -0.067415      -1.359517
      -0.605104      -0.130236      -1.366341
      -0.565159      -0.184182      -1.377197
      -0.513102      -0.225576      -1.391346
      -0.452480      -0.251597      -1.407821
      -0.387424      -0.260472      -1.425502
      -0.322369      -0.251597      -1.443183
      -0.261747      -0.225576      -1.459659
      -0.209690      -0.184182      -1.473807
      -0.169745      -0.130236      -1.484663
      -0.144634      -0.067415      -1.491488
      -0.265747       0.000000      -1.476272
      -0.270045       0.033836      -1.475104
      -0.282648       0.065367      -1.471678
      -0.302697       0.092443      -1.466229
      -0.328825       0.113219      -1.459128
      -0.359252       0.126279      -1.450859
      -0.391904       0.130734      -1.441985
      -0.424556       0.126279      -1.433111
      -0.454983       0.113219      -1.424841
      -0.481111       0.092443      -1.417740
      -0.501159       0.065367      -1.412291
      -0.513763       0.033836      -1.408866
      -0.518061      -0.000000      -1.407698
      -0.513763      -0.033836      -1.408866
      -0.501159      -0.065367      -1.412291
      -0.481111      -0.092443      -1.417740
      -0.454983      -0.113219      -1.424841
      -0.424556      -0.126279      -1.433111
      -0.391904      -0.130734      -1.441985
      -0.359252      -0.126279      -1.450859
      -0.328825      -0.113219      -1.459128
      -0.302697      -0.092443      -1.466229
      -0.282648      -0.065367      -1.471678
      -0.270045      -0.033836      -1.475104
VERTICES      288     576
 1        0
 1        1
 1        2
 1        3
 1        4
 1        5
 1        6
 1        7
 1        8
 1        9
 1       10
 1       11
 1       12
 1       13
 1       14
 1       15
 1       16
 1       17
 1       18
 1       19
 1       20
 1       21
 1       22
 1       23
 1       24
 1       25
 1       26
 1       27
 1       28
 1       29
 1       30
 1       31
 1       32
 1       33
 1       34
 1       35
 1       36
 1       37
 1       38
 1       39
 1       40
 1       41
 1       42
 1       43
 1       44
 1       45
 1       46
 1       47
 1       48
 1       49
 1       50
 1       51
 1       52
 1       53
 1       54
 1       55
 1       56
 1       57
 1       58
 1       59
 1       60
 1       61
 1       62
 1       63
 1       64
 1       65
 1       66
 1       67
 1       68
 1       69
 1       70
 1       71
 1       72
 1       73
 1       74
 1       75
 1       76
 1       77
 1       78
 1       79
 1       80
 1       81
 1       82
 1       83
 1       84
 1       85
 1       86
 1       87
 1       88
 1       89
 1       90
 1       91
 1       92
 1       93
 1       94
 1       95
 1       96
 1       97
 1       98
 1       99
 1      100
 1      101
 1      102
 1      103
 1      104
 1      105
 1      106
 1      107
 1      108
 1      109
 1      110
 1      111
 1      112
 1      113
 1      114
 1      115
 1      116
 1      117
 1      118
 1      119
 1      120
 1      121
 1      122
 1      123
 1      124
 1      125
 1      126
 1      127
 1      128
 1      129
 1      130
 1      131
 1      132
 1      133
 1      134
 1      135
 1      136
 1      137
 1      138
 1      139
 1      140
 1      141
 1      142
 1      143
 1      144
 1      145
 1      146
 1      147
 1      148
 1      149
 1      150
 1      151
 1      152
 1      153
 1      154
 1      155
 1      156
 1      157
 1      158
 1      159
 1      160
 1      161
 1      162
 1      163
 1      164
 1      165
 1      166
 1      167
 1      168
 1      169
 1      170
 1      171
 1      172
 1      173
 1      174
 1      175
 1      176
 1      177
 1      178
 1      179
 1      180
 1      181
 1      182
 1      183
 1      184
 1      185
 1      186
 1      187
 1      188
 1      189
 1      190
 1      191
 1      192
 1      193
 1      194
 1      195
 1      196
 1      197
 1      198
 1      199
 1      200
 1      201
 1      202
 1      203
 1      204
 1      205
 1      206
 1      207
 1      208
 1      209
 1      210
 1      211
 1      212
 1      213
 1      214
 1      215
 1      216
 1      217
 1      218
 1      219
 1      220
 1      221
 1      222
 1      223
 1      224
 1      225
 1      226
 1      227
 1      228
 1      229
 1      230
 1      231
 1      232
 1      233
 1      234
 1      235
 1      236
 1      237
 1      238
 1      239
 1      240
 1      241
 1      242
 1      243
 1      244
 1      245
 1      246
 1      247
 1      248
 1      249
 1      250
 1      251
 1      252
 1      253
 1      254
 1      255
 1      256
 1      257
 1      258
 1      259
 1      260
 1      261
 1      262
 1      263
 1      264
 1      265
 1      266
 1      267
 1      268
 1      269
 1      270
 1      271
 1      272
 1      273
 1      274
 1      275
 1      276
 1      277
 1      278
 1      279
 1      280
 1      281
 1      282
 1      283
 1      284
 1      285
 1      286
 1      287
POINT_DATA      288
SCALARS hemisphere int 1
LOOKUP_TABLE default
 1
 1
 1
 1
 1
 1
 1
 1
 1
 1
 1
 1
 1
 1
 1
 1
 1
 1
 1
 1
 1
 1
 1
 1
 1
 1
 1
 1
 1
 1
 1
 1
 1
 1
 1
 1
 1
 1
 1
 1
 1
 1
 1
 1
 1
 1
 1
 1
 1
 1
 1
 1
 1
 1
 1
 1
 1
 1
 1
 1
 1
 1
 1
 1
 1
 1
 1
 1
 1
 1
 1
 1
 1
 1
 1
 1
 1
 1
 1
 1
 1
 1
 1
 1
 1
 1
 1
 1
 1
 1
 1
 1
 1
 1
 1
 1
 1
 1
 1
 1
 1
 1
 1
 1
 1
 1
 1
 1
 1
 1
 1
 1
 1
 1
 1
 1
 1
 1
 1
 1
 1
 1
 1
 1
 1
 1
 1
 1
 1
 1
 1
 1
 1
 1
 1
 1
 1
 1
 1
 1
 1
 1
 1
 1
-1
-1
-1
-1
-1
-1
-1
-1
-1
-1
-1
-1
-1
-1
-1
-1
-1
-1
-1
-1
-1
-1
-1
-1
-1
-1
-1
-1
-1
-1
-1
-1
-1
-1
-1
-1
-1
-1
-1
-1
-1
-1
-1
-1
-1
-1
-1
-1
-1
-1
-1
-1
-1
-1
-1
-1
-1
-1
-1
-1
-1
-1
-1
-1
-1
-1
-1
-1
-1
-1
-1
-1
-1
-1
-1
-1
-1
-1
-1
-1
-1
-1
-1
-1
-1
-1
-1
-1
-1
-1
-1
-1
-1
-1
-1
-1
-1
-1
-1
-1
-1
-1
-1
-1
-1
-1
-1
-1
-1
-1
-1
-1
-1
-1
-1
-1
-1
-1
-1
-1
-1
-1
-1
-1
-1
-1
-1
-1
-1
-1
-1
-1
-1
-1
-1
-1
-1
-1
-1
-1
-1
-1
-1
-1
