<?xml version="1.0"?>
<VTKFile type="StructuredGrid" version="0.1" byte_order="LittleEndian" header_type="UInt32" compressor="vtkZLibDataCompressor">
  <StructuredGrid WholeExtent="0 60 0 20 0 20">
  <Piece Extent="0 60 0 20 0 20">
    <PointData Vectors="B_total">
      <DataArray type="Float32" Name="B_total" NumberOfComponents="3" format="ascii" RangeMin="0" RangeMax="61174.322275575105">
        -10.121325 -1.4668632 3.1922717 -10.46104 -1.5070515 3.279755
        -10.809816 -1.5487632 3.3679404 -11.167869 -1.5921686 3.456525
        -11.535451 -1.637465 3.5451677 -11.912861 -1.6848798 3.63348
        -12.300451 -1.7346735 3.721024 -12.698631 -1.787144 3.8073044
        -13.107878 -1.8426294 3.8917606 -13.528743 -1.9015142 3.9737587
        -13.961853 -1.9642315 4.0525823 -14.407926 -2.0312703 4.127421
        -14.86776 -2.1031797 4.197359 -15.342248 -2.1805756 4.2613645
        -15.832369 -2.2641475 4.318276 -16.339184 -2.3546662 4.366791
        -16.863829 -2.4529932 4.405455 -17.407505 -2.5600908 4.432656
        -17.971455 -2.6770365 4.446614 -18.556953 -2.8050356 4.445381
        -19.165274 -2.945442 4.4268436 -19.797665 -3.0997813 4.3887296
        -20.45531 -3.2697763 4.3286185 -21.139301 -3.4573836 4.2439556
        -21.850588 -3.6648328 4.132073 -22.589928 -3.8946743 3.9901998
        -23.357817 -4.149836 3.8155065 -24.154398 -4.43369 3.6051009
        -24.979342 -4.750119 3.3560863 -25.831682 -5.1036067 3.0656176
        -26.709623 -5.4993134 2.730998 -27.610281 -5.9431725 2.349837
        -28.529406 -6.441972 1.9202771 -29.461077 -7.003419 1.4413071
        -30.397404 -7.636158 0.91314685 -31.328245 -8.349694 0.3376963
        -32.240948 -9.15415 -0.28099883 -33.1201 -10.059729 -0.9362788
        -33.947342 -11.075779 -1.6184287 -34.70112 -12.209221 -2.3142114
        -35.356598 -13.462254 -3.006238 -35.88584 -14.829201 -3.671988
        -36.25883 -16.29268 -4.2822433 -36.445976 -17.81956 -4.7989573
        -36.422962 -19.357565 -5.1729064 -36.178318 -20.833996 -5.3421426
        -35.72318 -22.15794 -5.232604 -35.101246 -23.227222 -4.7621565
        -34.39563 -23.939846 -3.8482132 -6.988294 -5.3799095 -0.29823542
        -0.010738373 -0.4968233 0.2435236 0.025784016 -0.49336243 0.2448945
        0.059499264 -0.4822359 0.25565147 0.087436676 -0.464921 0.27424645
        0.10776329 -0.44353962 0.29832888 0.11994791 -0.420372 0.32529688
        0.12458181 -0.39744473 0.3527583 0.12299347 -0.37625456 0.3788737
        0.1168189 -0.35770082 0.4024392 0.10768795 -0.34217072 0.42283612
        0.09699774 -0.32965183 0.4399246 -10.163671 -1.3663405 3.1840832
        -10.504905 -1.4032019 3.2697675 -10.855366 -1.4414632 3.355994
        -11.215297 -1.4812816 3.4424567 -11.584981 -1.522839 3.5288079
        -11.964749 -1.5663447 3.6146567 -12.354988 -1.6120398 3.6995597
        -12.75615 -1.6601988 3.7830167 -13.168755 -1.7111356 3.8644617
        -13.593401 -1.7652054 3.943254 -14.030769 -1.8228109 4.0186696
        -14.481632 -1.8844064 4.089888 -14.946854 -1.9505042 4.1559834
        -15.427392 -2.0216796 4.215907 -15.924301 -2.0985801 4.2684817
        -16.438725 -2.181931 4.312381 -16.971888 -2.272548 4.346124
        -17.525095 -2.3713462 4.3680625 -18.099703 -2.4793568 4.376373
        -18.697113 -2.5977414 4.369054 -19.318752 -2.7278159 4.3439236
        -19.96604 -2.8710747 4.298621 -20.640364 -3.0292232 4.2306156
        -21.343058 -3.2042174 4.1372104 -22.075352 -3.3983114 4.015553
        -22.83834 -3.6141157 3.862637 -23.632914 -3.8546665 3.6753306
        -24.459677 -4.1235075 3.450358 -25.31885 -4.42479 3.184336
        -26.210104 -4.763378 2.8738039 -27.132385 -5.144988 2.5152946
        -28.08366 -5.576327 2.1054451 -29.060654 -6.0652485 1.6411726
        -30.058523 -6.6209087 1.1199011 -31.070507 -7.253883 0.5398532
        -32.08754 -7.976199 -0.09963882 -33.09775 -8.801191 -0.79779017
        -34.085907 -9.743059 -1.5520196 -35.032566 -10.815878 -2.357522
        -35.913136 -12.031919 -3.2066326 -36.69672 -13.398907 -4.0876884
        -37.34536 -14.916143 -4.9830575 -37.814217 -16.569431 -5.8659673
        -38.054092 -18.325354 -6.696211 -38.01754 -20.125896 -7.4153605
        -37.669525 -21.885384 -7.9431353 -37.00214 -23.491957 -8.177334
        -36.050617 -24.815876 -7.9997525 -34.90536 -25.725105 -7.289007
        -33.713924 -26.106016 -5.9383564 -16.779938 -13.531618 -1.9081354
        0.03403282 -0.49092484 0.16851091 0.075276375 -0.47777176 0.18445396
        0.10859823 -0.45783806 0.2110815 0.13175869 -0.43380642 0.24483013
        0.14434814 -0.40843773 0.28182387 0.14750004 -0.38406563 0.31872368
        0.14320946 -0.36226463 0.35307634 0.13377714 -0.34387398 0.38341329
        0.12132025 -0.32908916 0.40912744 0.1075592 -0.317698 0.4302326
        -10.195251 -1.259924 3.1736968 -10.537663 -1.2932358 3.2577212
        -10.889453 -1.3278153 3.3421512 -11.250885 -1.3638054 3.426677
        -11.622271 -1.4013715 3.5109496 -12.003974 -1.4407041 3.594574
        -12.396413 -1.4820224 3.6771052 -12.800076 -1.5255774 3.7580392
        -13.215526 -1.5716546 3.836807 -13.643402 -1.6205789 3.912764
        -14.084439 -1.6727192 3.9851813 -14.539459 -1.7284921 4.0532317
        -15.009386 -1.7883682 4.1159806 -15.495244 -1.8528781 4.17237
        -15.998157 -1.9226195 4.221206 -16.519348 -1.9982663 4.261147
        -17.060131 -2.080578 4.290688 -17.621912 -2.1704123 4.3081512
        -18.206161 -2.2687392 4.311675 -18.814415 -2.3766606 4.29921
        -19.448246 -2.4954317 4.26851 -20.109259 -2.6264899 4.217134
        -20.799055 -2.7714896 4.1424427 -21.519226 -2.9323459 4.041601
        -22.271307 -3.1112864 3.91157 -23.056757 -3.3109212 3.7491214
        -23.876907 -3.5343187 3.5508034 -24.732899 -3.7851043 3.3129475
        -25.625586 -4.0675826 3.0316596 -26.5554 -4.386874 2.7028236
        -27.522203 -4.749093 2.3221292 -28.525053 -5.161543 1.8851266
        -29.561956 -5.632949 1.3873204 -30.629566 -6.173707 0.8242878
        -31.722775 -6.7961197 0.19182423 -32.83424 -7.514573 -0.5139267
        -33.95367 -8.345549 -1.2963423 -35.066837 -9.30732 -2.1581697
        -36.15412 -10.41909 -3.1012049 -37.188553 -11.699267 -4.1255627
        -38.133446 -13.162481 -5.2280354 -38.940098 -14.815008 -6.3989916
        -39.54669 -16.648447 -7.61724 -39.880123 -18.631943 -8.842786
        -39.863136 -20.704193 -10.008392 -39.428417 -22.767517 -11.012293
        -38.53997 -24.68758 -11.716114 -37.217995 -26.302347 -11.952221
        -35.559666 -27.442255 -11.543288 -33.745426 -27.959345 -10.331984
        -32.022644 -27.757645 -8.21237 -16.841438 -14.953283 -2.7959404
        0.09306431 -0.45319748 0.10278225 0.13183403 -0.43192673 0.13977623
        0.15737057 -0.40701008 0.18565083 0.1696043 -0.38158226 0.23492861
        0.17038727 -0.35805702 0.28307247 0.16260624 -0.33793545 0.3268919
        0.14931583 -0.32181692 0.3647517 0.13317108 -0.30963135 0.39615595
        0.11619425 -0.30091715 0.4214018 -10.217688 -1.1480358 3.1609578
        -10.560991 -1.1776011 3.2434533 -10.913805 -1.2082946 3.3262396
        -11.276415 -1.2402439 3.4090052 -11.64916 -1.2735966 3.491399
        -12.032428 -1.3085237 3.5730264 -12.426669 -1.3452208 3.6534393
        -12.832405 -1.383913 3.732134 -13.250237 -1.4248568 3.8085396
        -13.680843 -1.4683439 3.8820095 -14.125004 -1.5147058 3.9518113
        -14.583592 -1.5643181 4.0171156 -15.057586 -1.6176057 4.0769806
        -15.548068 -1.675049 4.130341 -16.05623 -1.7371907 4.1759944
        -16.583374 -1.8046443 4.2125826 -17.130896 -1.8781044 4.238584
        -17.700298 -1.9583585 4.2522945 -18.293163 -2.046302 4.2518206
        -18.911158 -2.1429574 4.2350698 -19.55601 -2.2494972 4.1997385
        -20.229502 -2.3672726 4.143309 -20.93346 -2.4978511 4.063043
        -21.669727 -2.643061 3.9559722 -22.440168 -2.805048 3.818881
        -23.246626 -2.9863489 3.6483107 -24.090904 -3.1899745 3.4405034
        -24.974718 -3.419524 3.1913931 -25.899624 -3.6793156 2.8965635
        -26.866922 -3.9745564 2.5512176 -27.877533 -4.31155 2.1501527
        -28.931803 -4.6979427 1.6877425 -30.029312 -5.1430254 1.157928
        -31.168587 -5.6580763 0.55420077 -32.3467 -6.2567205 -0.13045545
        -33.558712 -6.9552703 -0.90366894 -34.796783 -7.772929 -1.7738509
        -36.04875 -8.731719 -2.750347 -37.296024 -9.8558445 -3.843381
        -38.51046 -11.170101 -5.063348 -39.6505 -12.696878 -6.4188213
        -40.656826 -14.451097 -7.9122725 -41.44916 -16.43275 -9.532647
        -41.92656 -18.617023 -11.244328 -41.974632 -20.943066 -12.973396
        -41.483322 -23.304243 -14.594499 -40.376312 -25.544668 -15.924228
        -38.64859 -27.467674 -16.728823 -36.400887 -28.86053 -16.752104
        -33.854355 -29.53342 -15.762087 -31.33075 -29.362907 -13.604018
        -29.19596 -28.323126 -10.238354 -7.308152 -7.33885 -1.515542
        0.1548357 -0.37903404 0.066399574 0.18182373 -0.35669327 0.12634182
        0.19268799 -0.33498573 0.18941355 0.19025421 -0.31609344 0.24969625
        0.1784296 -0.3011408 0.3034122 0.16105747 -0.2903118 0.34878647
        0.14128399 -0.28319883 0.38562918 0.1213541 -0.27910757 0.414649
        -10.23272 -1.0311397 3.1463947 -10.576681 -1.0567838 3.2275002
        -10.930267 -1.0834099 3.3088012 -11.293787 -1.1111292 3.3899868
        -11.667596 -1.1400709 3.4707055 -12.052111 -1.1703849 3.5505617
        -12.447809 -1.2022424 3.6291084 -12.855241 -1.2358407 3.705841
        -13.27504 -1.2714046 3.780189 -13.707922 -1.3091906 3.8515058
        -14.154709 -1.3494904 3.9190578 -14.616317 -1.3926347 3.9820127
        -15.093774 -1.4389985 4.039427 -15.588218 -1.4890065 4.090229
        -16.100904 -1.5431402 4.1332088 -16.633202 -1.6019452 4.166999
        -17.186588 -1.6660409 4.1900616 -17.762657 -1.7361329 4.200672
        -18.363096 -1.8130268 4.196911 -18.989697 -1.8976465 4.1766443
        -19.644335 -1.9910579 4.13752 -20.328972 -2.0944965 4.0769506
        -21.045643 -2.2094038 3.992105 -21.79646 -2.3374734 3.879891
        -22.583595 -2.480707 3.7369263 -23.409288 -2.64149 3.559532
        -24.275827 -2.8226788 3.343656 -25.185524 -3.027716 3.084842
        -26.140675 -3.2607765 2.7781582 -27.143507 -3.526949 2.4181237
        -28.196087 -3.8324647 1.9986224 -29.300209 -4.184987 1.5128067
        -30.457237 -4.593961 0.95296115 -31.66788 -5.071031 0.31032112
        -32.93185 -5.6305237 -0.42522043 -34.24724 -6.2899265 -1.2655278
        -35.60951 -7.070322 -2.224781 -37.00972 -7.9965725 -3.3200727
        -38.43169 -9.097 -4.5717726 -39.847786 -10.402143 -6.003122
        -41.213165 -11.941942 -7.6380615 -42.459015 -13.740603 -9.49596
        -43.48633 -15.808361 -11.581707 -44.163376 -18.129723 -13.870071
        -44.331886 -20.648941 -16.284868 -43.827713 -23.255882 -18.676996
        -42.519676 -25.777817 -20.80971 -40.363754 -27.985985 -22.36431
        -37.457565 -29.623669 -22.977455 -34.069458 -30.455872 -22.311495
        -30.616537 -30.327667 -20.139408 -27.58489 -29.20832 -16.409683
        -25.416506 -27.19968 -11.257461 0.17349815 -0.2917347 0.0025119781
        0.2004242 -0.27741814 0.07666683 0.2088871 -0.26512718 0.15312004
        0.20275307 -0.25618935 0.22466469 0.18693733 -0.2510109 0.28704453
        0.16594791 -0.24922132 0.33866787 0.14328098 -0.25007248 0.37971222
        0.12125587 -0.25274897 0.4114201 -10.242064 -0.9097866 3.1310298
        -10.586496 -0.9313556 3.210901 -10.940653 -0.9537538 3.2908924
        -11.304857 -0.9770759 3.3706923 -11.679488 -1.0014316 3.4499502
        -12.06498 -1.0269477 3.5282707 -12.461835 -1.0537705 3.6052082
        -12.870628 -1.0820676 3.6802585 -13.292023 -1.1120301 3.7528522
        -13.726769 -1.143877 3.8223426 -14.17572 -1.1778568 3.887997
        -14.639833 -1.2142521 3.9489822 -15.120181 -1.253384 4.0043526
        -15.617951 -1.2956166 4.0530343 -16.134453 -1.3413634 4.093812
        -16.671118 -1.3910943 4.125309 -17.229496 -1.4453447 4.1459756
        -17.811264 -1.5047257 4.1540723 -18.418207 -1.569938 4.147653
        -19.05223 -1.641789 4.124554 -19.715347 -1.7212129 4.0823765
        -20.409683 -1.8092993 4.0184717 -21.13748 -1.9073259 3.9299269
        -21.901087 -2.0168018 3.8135357 -22.702991 -2.1395211 3.6657643
        -23.545803 -2.2776382 3.4827287 -24.43228 -2.4337473 3.2601032
        -25.365322 -2.611002 2.9930654 -26.347967 -2.8132572 2.6761918
        -27.383377 -3.0452535 2.3033404 -28.474798 -3.3128574 1.8675059
        -29.625526 -3.6233594 1.3606259 -30.838821 -3.9858546 0.77331746
        -32.117775 -4.41171 0.094503306 -33.46502 -4.9151144 -0.68914056
        -34.882156 -5.513685 -1.5939659 -36.36864 -6.2290764 -2.6403804
        -37.91976 -7.087433 -3.8540118 -39.52318 -8.119423 -5.266714
        -41.15354 -9.35944 -6.9166965 -42.764896 -10.84326 -8.846541
        -44.280968 -12.603217 -11.097237 -45.58522 -14.65983 -13.695888
        -46.514137 -17.008873 -16.634886 -46.860725 -19.604357 -19.842377
        -46.39669 -22.339916 -23.14811 -44.921234 -25.035528 -26.256319
        -42.335426 -27.440311 -28.74531 -38.723785 -29.26201 -30.114452
        -34.40538 -30.225641 -29.884918 -29.912457 -30.14664 -27.72966
        -25.881521 -28.988539 -23.577448 -22.891489 -26.875195 -17.63477
        -21.319572 -24.049747 -10.309541 0.20660973 -0.16774368 0.050907135
        0.21191597 -0.17197323 0.13691235 0.20242119 -0.1793108 0.21582031
        0.18369102 -0.18904209 0.28327703 0.16060162 -0.20020437 0.33800983
        0.13669205 -0.21186876 0.38076115 0.11416149 -0.22327471 0.41320682
        -10.247299 -0.78462094 3.1161454 -10.59206 -0.8019824 3.1949625
        -10.946626 -0.82001466 3.2738404 -11.311337 -0.8387949 3.352469
        -11.686584 -0.8584122 3.4304974 -12.072822 -0.87897015 3.507532
        -12.470571 -0.9005875 3.5831275 -12.880429 -0.92340076 3.6567822
        -13.303084 -0.9475664 3.727927 -13.739313 -0.97326255 3.7959166
        -14.189998 -1.0006925 3.860019 -14.65613 -1.0300875 3.9194014
        -15.13882 -1.0617102 3.973117 -15.639295 -1.0958595 4.0200906
        -16.158913 -1.1328752 4.059102 -16.69916 -1.1731442 4.0887694
        -17.26165 -1.2171084 4.1075344 -17.848127 -1.2652736 4.1136417
        -18.460464 -1.3182213 4.105128 -19.10067 -1.376624 4.0798
        -19.770874 -1.4412626 4.035222 -20.473352 -1.5130514 3.9686933
        -21.210522 -1.5930666 3.8772273 -21.984959 -1.6825857 3.7575204
        -22.799421 -1.7831342 3.605905 -23.656866 -1.8965546 3.4183176
        -24.560482 -2.0250769 3.1901877 -25.51371 -2.1714282 2.916363
        -26.520287 -2.338965 2.5909755 -27.584248 -2.5318449 2.2072814
        -28.709982 -2.7552536 1.7574501 -29.902239 -3.0156927 1.2322804
        -31.16615 -3.321352 0.6208099 -32.507187 -3.6825786 -0.09025924
        -33.930977 -4.11244 -0.9173877 -35.442806 -4.627392 -1.8813655
        -37.046505 -5.2479763 -3.0088549 -38.742218 -5.9994698 -4.334226
        -40.522514 -6.9122286 -5.901354 -42.365948 -8.021343 -7.764532
        -44.227592 -9.364919 -9.987053 -46.026405 -10.97998 -12.634975
        -47.63092 -12.894686 -15.762802 -48.84742 -15.115538 -19.387484
        -49.418884 -17.60924 -23.44904 -49.047028 -20.281351 -27.76156
        -47.45016 -22.958597 -31.96925 -44.46004 -25.387115 -35.535164
        -40.136578 -27.260414 -37.79631 -34.848656 -28.282398 -38.100494
        -29.25739 -28.250591 -35.99382 -24.173508 -27.124264 -31.377272
        -20.335289 -25.04006 -24.543583 -18.2109 -22.26477 -16.068047
        0.19281197 -0.033981323 0.06610489 0.19497299 -0.061720848 0.15304565
        0.18366432 -0.09110737 0.23152637 0.16445923 -0.12012959 0.29752398
        0.14199638 -0.14732075 0.3502431 0.11947727 -0.17180014 0.39082122
        0.0987587 -0.19316602 0.42120945 -10.249796 -0.6563614 3.1030633
        -10.594775 -0.6694063 3.1810305 -10.949623 -0.68295866 3.2590148
        -11.31469 -0.6970771 3.3367064 -11.690381 -0.7118296 3.4137554
        -12.077165 -0.7272948 3.4897687 -12.475577 -0.7435635 3.5643036
        -12.886234 -0.7607396 3.6368585 -13.30984 -0.7789425 3.7068658
        -13.747194 -0.7983083 3.7736819 -14.199204 -0.81899226 3.8365753
        -14.666887 -0.841171 3.8947136 -15.151382 -0.865046 3.9471502
        -15.653952 -0.8908461 3.9928083 -16.175993 -0.9188321 4.030465
        -16.719032 -0.94930166 4.058735 -17.284737 -0.982595 4.0760508
        -17.874908 -1.0191026 4.0806484 -18.491491 -1.0592743 4.0705476
        -19.136572 -1.1036317 4.0435343 -19.812387 -1.1527821 3.9971404
        -20.521332 -1.2074383 3.9286237 -21.26597 -1.2684427 3.8349383
        -22.049068 -1.3367963 3.7126946 -22.873611 -1.4137051 3.5581303
        -23.742851 -1.500622 3.367016 -24.66034 -1.5993187 3.1345835
        -25.62999 -1.7119703 2.855404 -26.656128 -1.8412654 2.5232332
        -27.743568 -1.9905542 2.130814 -28.8977 -2.1640387 1.6696057
        -30.124554 -2.3670197 1.1294234 -31.430954 -2.606227 0.49791825
        -32.824547 -2.890226 -0.24017382 -34.31373 -3.2299335 -1.1041183
        -35.90728 -3.6392393 -2.1187224 -37.613274 -4.135694 -3.316393
        -39.436783 -4.7411957 -4.73965 -41.37562 -5.4825134 -6.443761
        -43.413155 -6.39129 -8.49863 -45.507156 -7.502961 -10.988164
        -47.57442 -8.853643 -14.004231 -49.472164 -10.473705 -17.630867
        -50.980606 -12.376529 -21.913637 -51.79635 -14.541656 -26.810532
        -51.552376 -16.893658 -32.12704 -49.88327 -19.282854 -37.452515
        -46.54413 -21.479864 -42.134136 -41.56108 -23.199001 -45.337173
        -35.346806 -24.157774 -46.219482 -28.692595 -24.159756 -44.18475
        -22.590853 -23.164547 -39.10037 -17.946568 -21.304945 -31.353224
        -15.320421 -18.838915 -21.701351 -11.685909 -12.674146 -8.670002
        0.15284538 0.051462173 0.21149063 0.14263153 -0.0028657913 0.27804375
        0.12664986 -0.052947998 0.33349705 0.10855293 -0.097035885 0.3774209
        0.09077644 -0.13458681 0.41095757 0.074661255 -0.16582513 0.43593824
        -10.25065 -0.52577186 3.0929666 -10.595763 -0.53441674 3.1703105
        -10.950789 -0.54340154 3.2476416 -11.316091 -0.55276567 3.324649
        -11.69208 -0.5625552 3.4009857 -12.079231 -0.5728235 3.4762583
        -12.478098 -0.58363175 3.550025 -12.889305 -0.5950505 3.6217859
        -13.313571 -0.60716057 3.690974 -13.751714 -0.6200542 3.7569475
        -14.204655 -0.6338366 3.8189747 -14.67343 -0.6486279 3.8762238
        -15.159204 -0.6645647 3.9277492 -15.66326 -0.68180287 3.9724717
        -16.187027 -0.7005198 4.0091677 -16.732061 -0.7209186 4.0364485
        -17.300066 -0.74323124 4.0527415 -17.892889 -0.76772475 4.056275
        -18.512526 -0.7947072 4.045057 -19.161121 -0.82453597 4.016856
        -19.840992 -0.85762835 3.969184 -20.554623 -0.8944751 3.8992646
        -21.304688 -0.93565696 3.8040085 -22.094093 -0.9818649 3.6799653
        -22.925999 -1.0339347 3.5232906 -23.803879 -1.092874 3.329642
        -24.731562 -1.1599151 3.094097 -25.713324 -1.2365737 2.8110182
        -26.753948 -1.3247297 2.4738755 -27.85885 -1.4267313 2.0750175
        -29.034187 -1.5455338 1.6053585 -30.287022 -1.6848807 1.0539496
        -31.625502 -1.8495414 0.40736067 -33.059017 -2.0456166 -0.35121638
        -34.598217 -2.280926 -1.2432699 -36.254745 -2.565476 -2.2968187
        -38.040222 -2.9120076 -3.5488992 -39.963963 -3.3365655 -5.048688
        -42.02849 -3.8589764 -6.860881 -44.221756 -4.5030184 -9.068493
        -46.50483 -5.295843 -11.773099 -48.79421 -6.2659383 -15.089223
        -50.939617 -7.4386463 -19.127697 -52.701504 -8.827869 -23.961397
        -53.73896 -10.423162 -29.567883 -53.62677 -12.172798 -35.75017
        -51.9255 -13.967235 -42.054115 -48.319183 -15.632776 -47.72663
        -42.798313 -16.948175 -51.777874 -35.8091 -17.691032 -53.189766
        -28.256195 -17.704336 -51.231018 -21.29453 -16.95536 -45.736046
        -15.978468 -15.550656 -37.179253 -12.949469 -13.695948 -26.488749
        -12.317413 -11.625638 -14.709699 0.084760666 0.14648676 0.31486702
        0.07929611 0.0697279 0.35631084 0.07078171 0.0011920929 0.3911953
        0.061109543 -0.057336807 0.41909838 0.05153656 -0.10578585 0.44063878
        0.0427866 -0.14505124 0.45686245 -10.250658 -0.3936355 3.0867734
        -10.595838 -0.39782414 3.1637383 -10.95096 -0.40218195 3.2406714
        -11.316388 -0.40672913 3.317264 -11.692542 -0.41148922 3.3931682
        -12.079904 -0.4164893 3.467992 -12.479028 -0.4217608 3.5412943
        -12.890553 -0.42733967 3.6125753 -13.315203 -0.43326724 3.6812692
        -13.753804 -0.43959078 3.7467337 -14.207291 -0.44636413 3.8082387
        -14.67671 -0.45364892 3.864953 -15.163239 -0.4615153 3.9159293
        -15.668177 -0.4700432 3.9600902 -16.192966 -0.479324 3.996209
        -16.739187 -0.48946193 4.0228953 -17.308565 -0.5005767 4.0385737
        -17.90297 -0.5128058 4.041467 -18.524435 -0.5263082 4.0295763
        -19.175142 -0.54126835 4.0006614 -19.857449 -0.5579017 3.952217
        -20.573896 -0.5764616 3.8814487 -21.327234 -0.5972481 3.7852392
        -22.12045 -0.62061715 3.660101 -22.956814 -0.64700156 3.5021372
        -23.839931 -0.67692065 3.3069344 -24.773813 -0.71100926 3.0694757
        -25.762953 -0.7500479 2.7839913 -26.812422 -0.7950033 2.4437728
        -27.928005 -0.8470813 2.0409212 -29.11636 -0.9077983 1.5660074
        -30.38519 -0.9790713 1.0076007 -31.743486 -1.0633403 0.3515861
        -33.201748 -1.1637254 -0.41982484 -34.772083 -1.2842175 -1.3295403
        -36.467983 -1.4299254 -2.4076371 -38.303406 -1.6073542 -3.6941397
        -40.290462 -1.824697 -5.242531 -42.43489 -2.0921016 -7.123682
        -44.727882 -2.4217694 -9.429253 -47.13303 -2.8277073 -12.272611
        -49.567223 -3.3247313 -15.783596 -51.876038 -3.9262648 -20.09151
        -53.807804 -4.6400895 -25.2886 -54.997543 -5.4616556 -31.367237
        -54.98152 -6.3650503 -38.13082 -53.270035 -7.2938976 -45.097652
        -49.49731 -8.157491 -51.44719 -43.627335 -8.839732 -56.08241
        -36.12702 -9.223643 -57.861347 -27.977839 -9.224933 -55.956837
        -20.446564 -8.826307 -50.17957 -14.690096 -8.086043 -41.06629
        -11.404253 -7.1148744 -29.665407 -10.694447 -6.037317 -17.150625
        -0.0032901764 0.2005701 0.45410347 -0.00083732605 0.11038995 0.45942688
        0.0016212463 0.030996561 0.46552372 0.0035533905 -0.035871506 0.4716668
        0.0048332214 -0.09050012 0.47733402 0.005517006 -0.13423562 0.48225975
        -10.250301 -0.26073912 3.0850613 -10.595494 -0.2604435 3.161901
        -10.950638 -0.26014495 3.238703 -11.316096 -0.259844 3.3151586
        -11.692293 -0.25954133 3.3909194 -12.079712 -0.25923777 3.4655945
        -12.47891 -0.25893417 3.5387416 -12.890526 -0.25863177 3.609862
        -13.315289 -0.2583318 3.6783903 -13.754028 -0.258036 3.743684
        -14.20768 -0.25774604 3.805013 -14.677298 -0.25746417 3.8615456
        -15.164058 -0.25719294 3.9123347 -15.669271 -0.25693527 3.9563024
        -16.19438 -0.25669459 3.9922223 -16.740973 -0.2564749 4.0187016
        -17.310781 -0.25628075 4.0341644 -17.905691 -0.25611734 4.0368314
        -18.527735 -0.25599077 4.024701 -19.179111 -0.2559077 3.9955285
        -19.862196 -0.25587574 3.9468038 -20.579544 -0.25590342 3.8757248
        -21.33393 -0.25599986 3.7791643 -22.128366 -0.25617298 3.6536222
        -22.96616 -0.2564359 3.4951818 -23.850962 -0.25679672 3.299406
        -24.786835 -0.25726366 3.0612445 -25.778341 -0.2578415 2.7748818
        -26.830652 -0.2585306 2.4335494 -27.949675 -0.2593208 2.0292635
        -29.142208 -0.26018777 1.5524806 -30.416166 -0.26108336 0.9916079
        -31.780819 -0.26192376 0.33230364 -33.247 -0.26257083 -0.44354293
        -34.827286 -0.26280686 -1.3593049 -36.535744 -0.26229617 -2.4457269
        -38.387054 -0.26054016 -3.7437983 -40.394222 -0.25680864 -5.308396
        -42.563934 -0.25006875 -7.2123528 -44.88837 -0.23890182 -9.550087
        -47.331856 -0.22145028 -12.438688 -49.811317 -0.19542576 -16.01282
        -52.170906 -0.15831853 -20.40754 -54.15502 -0.10777089 -25.721054
        -55.391068 -0.042368084 -31.950195 -55.403202 0.037296653 -38.898148
        -53.686016 0.12745112 -46.074055 -49.858276 0.22021711 -52.635735
        -43.876564 0.302801 -57.451828 -36.212677 0.3608378 -59.341774
        -27.875881 0.38487077 -57.44786 -20.16715 0.37207934 -51.574574
        -14.275246 0.3261097 -42.27952 -10.912384 0.25704476 -30.650127
        -10.181873 0.17783973 -17.901047 -0.098674774 0.1976578 0.60827255
        -0.08706474 0.10794953 0.5727844 -0.07231331 0.02894178 0.5466461
        -0.057546616 -0.037605405 0.528615 -0.044433594 -0.09196155 0.51680326
        -0.03356743 -0.13545963 0.50939727 -10.249743 -0.1278675 3.0880265
        -10.594896 -0.12308878 3.1649992 -10.949989 -0.11813506 3.24194
        -11.315388 -0.11298724 3.3185394 -11.691507 -0.10762315 3.394449
        -12.078835 -0.10201724 3.4692771 -12.477923 -0.09614011 3.542582
        -12.889409 -0.08995795 3.6138637 -13.314018 -0.08343217 3.6825566
        -13.752575 -0.076518714 3.7480178 -14.206013 -0.06916724 3.809517
        -14.675382 -0.06132064 3.8662217 -15.161854 -0.05291385 3.917185
        -15.666732 -0.04387273 3.9613283 -16.191458 -0.03411293 3.9974253
        -16.737606 -0.023537977 4.024083 -17.306906 -0.01203745 4.039727
        -17.901226 0.0005157031 4.042578 -18.522596 0.014268422 4.030637
        -19.173197 0.029391674 4.0016603 -19.855387 0.04608562 3.9531424
        -20.5717 0.06458677 3.8822873 -21.324884 0.085176535 3.7859755
        -22.11792 0.10819466 3.660717 -22.954079 0.13404818 3.5026126
        -23.836954 0.1632394 3.3072472 -24.770546 0.19638644 3.069601
        -25.759327 0.23425847 2.7839031 -26.808363 0.2778216 2.443444
        -27.923405 0.3282991 2.0403268 -29.111067 0.38725224 1.5651286
        -30.379011 0.45668927 1.0064319 -31.73615 0.5392097 0.3501454
        -33.192886 0.63819546 -0.42147484 -34.76118 0.7580543 -1.3312619
        -36.454327 0.9045306 -2.4091578 -38.286007 1.0850759 -3.6949766
        -40.267967 1.3092648 -5.2418513 -42.405453 1.5891864 -7.1200943
        -44.689045 1.9396954 -9.420491 -47.081654 2.3782392 -12.255081
        -49.499527 2.923834 -15.751764 -51.787918 3.5944364 -20.037195
        -53.695694 4.401975 -25.200354 -54.85997 5.344193 -31.230213
        -54.82141 6.3937263 -37.927994 -53.097107 7.4869537 -44.81304
        -49.329025 8.518569 -51.071465 -43.48672 9.349924 -55.619663
        -36.03808 9.838341 -57.33302 -27.957434 9.883476 -55.399796
        -20.496777 9.462795 -49.63731 -14.798161 8.641101 -40.577103
        -11.548672 7.546792 -29.253193 -10.852947 6.3272448 -16.822721
        -0.18541336 0.13577032 0.7502117 -0.16614723 0.06111741 0.6778641
        -0.1406498 -0.0057718754 0.6223316 -0.11441422 -0.063004255 0.5820422
        -0.09056854 -0.11042416 0.55401325 -0.07037258 -0.14885855 0.5350877
        -10.248824 0.004194481 3.0954726 -10.593883 0.01342615 3.1728332
        -10.948852 0.023003295 3.250179 -11.314091 0.032964382 3.3272002
        -11.690015 0.04335403 3.4035475 -12.077099 0.05422394 3.4788287
        -12.475892 0.065633476 3.5526009 -12.887022 0.07765093 3.6243637
        -13.311206 0.09035422 3.69355 -13.749259 0.10383254 3.7595167
        -14.202105 0.11818751 3.821532 -14.670778 0.13353476 3.878763
        -15.156442 0.15000597 3.9302623 -15.66038 0.1677508 3.9749515
        -16.184017 0.18694009 4.011604 -16.72891 0.20776859 4.0388293
        -17.29676 0.23045951 4.055054 -17.889412 0.2552691 4.058503
        -18.50886 0.28249326 4.0471845 -19.15725 0.31247616 4.0188627
        -19.836885 0.3456196 3.971046 -20.550247 0.38239712 3.900955
        -21.30001 0.4233706 3.8054965 -22.089066 0.46921444 3.6812165
        -22.920565 0.520738 3.5242648 -23.797962 0.5789311 3.3302946
        -24.725073 0.6450074 3.0943801 -25.706139 0.7204691 2.81088
        -26.74591 0.8071914 2.473263 -27.849747 0.90753293 2.0738816
        -29.023737 1.0244852 1.603661 -30.274845 1.1618674 1.0516769
        -31.611078 1.324583 0.40454566 -33.041634 1.5189598 -0.35445517
        -34.5769 1.7531717 -1.2466707 -36.22814 2.03777 -2.2998748
        -38.00647 2.3862998 -3.550703 -39.92052 2.815958 -5.04768
        -41.971924 3.3481789 -6.854475 -44.147552 4.008888 -9.052503
        -46.407265 4.827943 -11.740931 -48.666485 5.837024 -15.030797
        -50.774506 7.0647306 -19.028275 -52.492928 8.527655 -23.800547
        -53.484818 10.21633 -29.319466 -53.332924 12.076981 -35.38456
        -51.60984 13.993765 -41.54395 -48.013268 15.781745 -47.056534
        -42.54384 17.20403 -50.955547 -35.648346 18.021997 -52.25271
        -28.217966 18.067924 -50.24303 -21.38264 17.305859 -44.772385
        -16.171127 15.846711 -36.306385 -13.209373 13.90761 -25.748985
        -12.605167 11.738049 -14.117153 -0.24955368 0.028669357 0.8557873
        -0.22638893 -0.020497322 0.75809956 -0.19412613 -0.06660128 0.6815262
        -0.16004181 -0.10769224 0.62477636 -0.12841034 -0.14298749 0.5843587
        -0.10115528 -0.17250991 0.55639815 -10.247065 0.13466059 3.1068223
        -10.591962 0.14828674 3.1848147 -10.946722 0.16242567 3.2628217
        -11.311699 0.17713481 3.3405333 -11.687294 0.19248083 3.4175987
        -12.073976 0.20854083 3.4936254 -12.47228 0.2254035 3.5681689
        -12.88282 0.24317059 3.640727 -13.306303 0.2619586 3.7107322
        -13.743526 0.28190058 3.777539 -14.195395 0.303148 3.8404152
        -14.662927 0.32587323 3.8985271 -15.147257 0.35027236 3.9509263
        -15.64965 0.3765685 3.9965348 -16.1715 0.40501556 4.0341277
        -16.71433 0.4359031 4.0623164 -17.279804 0.46956223 4.079532
        -17.869724 0.50637263 4.084007 -18.486029 0.5467725 4.073758
        -19.1308 0.591269 4.0465665 -19.806269 0.6404546 3.99996
        -20.514822 0.69502443 3.9311914 -21.259014 0.7558017 3.8372092
        -22.041597 0.8237699 3.7146177 -22.865541 0.90010786 3.5596468
        -23.734077 0.98624927 3.3680618 -24.650726 1.0839444 3.1350873
        -25.619362 1.1953508 2.8552902 -26.644258 1.3231467 2.5224247
        -27.730158 1.4706833 2.1292384 -28.882343 1.6421831 1.6672063