# vtk DataFile Version 3.0
T01 + IGRF magnetic field in GSW coordinates
ASCII
DATASET STRUCTURED_GRID
DIMENSIONS     61    21    21
POINTS    26901 float
     -50.000000     -10.000000     -10.000000
     -49.000000     -10.000000     -10.000000
     -48.000000     -10.000000     -10.000000
     -47.000000     -10.000000     -10.000000
     -46.000000     -10.000000     -10.000000
     -45.000000     -10.000000     -10.000000
     -44.000000     -10.000000     -10.000000
     -43.000000     -10.000000     -10.000000
     -42.000000     -10.000000     -10.000000
     -41.000000     -10.000000     -10.000000
     -40.000000     -10.000000     -10.000000
     -39.000000     -10.000000     -10.000000
     -38.000000     -10.000000     -10.000000
     -37.000000     -10.000000     -10.000000
     -36.000000     -10.000000     -10.000000
     -35.000000     -10.000000     -10.000000
     -34.000000     -10.000000     -10.000000
     -33.000000     -10.000000     -10.000000
     -32.000000     -10.000000     -10.000000
     -31.000000     -10.000000     -10.000000
     -30.000000     -10.000000     -10.000000
     -29.000000     -10.000000     -10.000000
     -28.000000     -10.000000     -10.000000
     -27.000000     -10.000000     -10.000000
     -26.000000     -10.000000     -10.000000
     -25.000000     -10.000000     -10.000000
     -24.000000     -10.000000     -10.000000
     -23.000000     -10.000000     -10.000000
     -22.000000     -10.000000     -10.000000
     -21.000000     -10.000000     -10.000000
     -20.000000     -10.000000     -10.000000
     -19.000000     -10.000000     -10.000000
     -18.000000     -10.000000     -10.000000
     -17.000000     -10.000000     -10.000000
     -16.000000     -10.000000     -10.000000
     -15.000000     -10.000000     -10.000000
     -14.000000     -10.000000     -10.000000
     -13.000000     -10.000000     -10.000000
     -12.000000     -10.000000     -10.000000
     -11.000000     -10.000000     -10.000000
     -10.000000     -10.000000     -10.000000
      -9.000000     -10.000000     -10.000000
      -8.000000     -10.000000     -10.000000
      -7.000000     -10.000000     -10.000000
      -6.000000     -10.000000     -10.000000
      -5.000000     -10.000000     -10.000000
      -4.000000     -10.000000     -10.000000
      -3.000000     -10.000000     -10.000000
      -2.000000     -10.000000     -10.000000
      -1.000000     -10.000000     -10.000000
       0.000000     -10.000000     -10.000000
       1.000000     -10.000000     -10.000000
       2.000000     -10.000000     -10.000000
       3.000000     -10.000000     -10.000000
       4.000000     -10.000000     -10.000000
       5.000000     -10.000000     -10.000000
       6.000000     -10.000000     -10.000000
       7.000000     -10.000000     -10.000000
       8.000000     -10.000000     -10.000000
       9.000000     -10.000000     -10.000000
      10.000000     -10.000000     -10.000000
     -50.000000      -9.000000     -10.000000
     -49.000000      -9.000000     -10.000000
     -48.000000      -9.000000     -10.000000
     -47.000000      -9.000000     -10.000000
     -46.000000      -9.000000     -10.000000
     -45.000000      -9.000000     -10.000000
     -44.000000      -9.000000     -10.000000
     -43.000000      -9.000000     -10.000000
     -42.000000      -9.000000     -10.000000
     -41.000000      -9.000000     -10.000000
     -40.000000      -9.000000     -10.000000
     -39.000000      -9.000000     -10.000000
     -38.000000      -9.000000     -10.000000
     -37.000000      -9.000000     -10.000000
     -36.000000      -9.000000     -10.000000
     -35.000000      -9.000000     -10.000000
     -34.000000      -9.000000     -10.000000
     -33.000000      -9.000000     -10.000000
     -32.000000      -9.000000     -10.000000
     -31.000000      -9.000000     -10.000000
     -30.000000      -9.000000     -10.000000
     -29.000000      -9.000000     -10.000000
     -28.000000      -9.000000     -10.000000
     -27.000000      -9.000000     -10.000000
     -26.000000      -9.000000     -10.000000
     -25.000000      -9.000000     -10.000000
     -24.000000      -9.000000     -10.000000
     -23.000000      -9.000000     -10.000000
     -22.000000      -9.000000     -10.000000
     -21.000000      -9.000000     -10.000000
     -20.000000      -9.000000     -10.000000
     -19.000000      -9.000000     -10.000000
     -18.000000      -9.000000     -10.000000
     -17.000000      -9.000000     -10.000000
     -16.000000      -9.000000     -10.000000
     -15.000000      -9.000000     -10.000000
     -14.000000      -9.000000     -10.000000
     -13.000000      -9.000000     -10.000000
     -12.000000      -9.000000     -10.000000
     -11.000000      -9.000000     -10.000000
     -10.000000      -9.000000     -10.000000
      -9.000000      -9.000000     -10.000000
      -8.000000      -9.000000     -10.000000
      -7.000000      -9.000000     -10.000000
      -6.000000      -9.000000     -10.000000
      -5.000000      -9.000000     -10.000000
      -4.000000      -9.000000     -10.000000
      -3.000000      -9.000000     -10.000000
      -2.000000      -9.000000     -10.000000
      -1.000000      -9.000000     -10.000000
       0.000000      -9.000000     -10.000000
       1.000000      -9.000000     -10.000000
       2.000000      -9.000000     -10.000000
       3.000000      -9.000000     -10.000000
       4.000000      -9.000000     -10.000000
       5.000000      -9.000000     -10.000000
       6.000000      -9.000000     -10.000000
       7.000000      -9.000000     -10.000000
       8.000000      -9.000000     -10.000000
       9.000000      -9.000000     -10.000000
      10.000000      -9.000000     -10.000000
     -50.000000      -8.000000     -10.000000
     -49.000000      -8.000000     -10.000000
     -48.000000      -8.000000     -10.000000
     -47.000000      -8.000000     -10.000000
     -46.000000      -8.000000     -10.000000
     -45.000000      -8.000000     -10.000000
     -44.000000      -8.000000     -10.000000
     -43.000000      -8.000000     -10.000000
     -42.000000      -8.000000     -10.000000
     -41.000000      -8.000000     -10.000000
     -40.000000      -8.000000     -10.000000
     -39.000000      -8.000000     -10.000000
     -38.000000      -8.000000     -10.000000
     -37.000000      -8.000000     -10.000000
     -36.000000      -8.000000     -10.000000
     -35.000000      -8.000000     -10.000000
     -34.000000      -8.000000     -10.000000
     -33.000000      -8.000000     -10.000000
     -32.000000      -8.000000     -10.000000
     -31.000000      -8.000000     -10.000000
     -30.000000      -8.000000     -10.000000
     -29.000000      -8.000000     -10.000000
     -28.000000      -8.000000     -10.000000
     -27.000000      -8.000000     -10.000000
     -26.000000      -8.000000     -10.000000
     -25.000000      -8.000000     -10.000000
     -24.000000      -8.000000     -10.000000
     -23.000000      -8.000000     -10.000000
     -22.000000      -8.000000     -10.000000
     -21.000000      -8.000000     -10.000000
     -20.000000      -8.000000     -10.000000
     -19.000000      -8.000000     -10.000000
     -18.000000      -8.000000     -10.000000
     -17.000000      -8.000000     -10.000000
     -16.000000      -8.000000     -10.000000
     -15.000000      -8.000000     -10.000000
     -14.000000      -8.000000     -10.000000
     -13.000000      -8.000000     -10.000000
     -12.000000      -8.000000     -10.000000
     -11.000000      -8.000000     -10.000000
     -10.000000      -8.000000     -10.000000
      -9.000000      -8.000000     -10.000000
      -8.000000      -8.000000     -10.000000
      -7.000000      -8.000000     -10.000000
      -6.000000      -8.000000     -10.000000
      -5.000000      -8.000000     -10.000000
      -4.000000      -8.000000     -10.000000
      -3.000000      -8.000000     -10.000000
      -2.000000      -8.000000     -10.000000
      -1.000000      -8.000000     -10.000000
       0.000000      -8.000000     -10.000000
       1.000000      -8.000000     -10.000000
       2.000000      -8.000000     -10.000000
       3.000000      -8.000000     -10.000000
       4.000000      -8.000000     -10.000000
       5.000000      -8.000000     -10.000000
       6.000000      -8.000000     -10.000000
       7.000000      -8.000000     -10.000000
       8.000000      -8.000000     -10.000000
       9.000000      -8.000000     -10.000000
      10.000000      -8.000000     -10.000000
     -50.000000      -7.000000     -10.000000
     -49.000000      -7.000000     -10.000000
     -48.000000      -7.000000     -10.000000
     -47.000000      -7.000000     -10.000000
     -46.000000      -7.000000     -10.000000
     -45.000000      -7.000000     -10.000000
     -44.000000      -7.000000     -10.000000
     -43.000000      -7.000000     -10.000000
     -42.000000      -7.000000     -10.000000
     -41.000000      -7.000000     -10.000000
     -40.000000      -7.000000     -10.000000
     -39.000000      -7.000000     -10.000000
     -38.000000      -7.000000     -10.000000
     -37.000000      -7.000000     -10.000000
     -36.000000      -7.000000     -10.000000
     -35.000000      -7.000000     -10.000000
     -34.000000      -7.000000     -10.000000
     -33.000000      -7.000000     -10.000000
     -32.000000      -7.000000     -10.000000
     -31.000000      -7.000000     -10.000000
     -30.000000      -7.000000     -10.000000
     -29.000000      -7.000000     -10.000000
     -28.000000      -7.000000     -10.000000
     -27.000000      -7.000000     -10.000000
     -26.000000      -7.000000     -10.000000
     -25.000000      -7.000000     -10.000000
[...]
POINT_DATA    26901
VECTORS B_total float
  -9.2740097E+00  -1.1798785E+00   3.2630932E+00
  -9.5942183E+00  -1.2125736E+00   3.3477979E+00
  -9.9238749E+00  -1.2469271E+00   3.4331007E+00
  -1.0263274E+01  -1.2831379E+00   3.5187621E+00
  -1.0612752E+01  -1.3214333E+00   3.6045160E+00
  -1.0972689E+01  -1.3620725E+00   3.6900618E+00
  -1.1343523E+01  -1.4053502E+00   3.7750640E+00
  -1.1725759E+01  -1.4516007E+00   3.8591425E+00
  -1.2119966E+01  -1.5012028E+00   3.9418695E+00
  -1.2526795E+01  -1.5545844E+00   4.0227594E+00
  -1.2946981E+01  -1.6122279E+00   4.1012588E+00
  -1.3381351E+01  -1.6746767E+00   4.1767378E+00
  -1.3830822E+01  -1.7425413E+00   4.2484765E+00
  -1.4296412E+01  -1.8165071E+00   4.3156519E+00
  -1.4779235E+01  -1.8973415E+00   4.3773246E+00
  -1.5280498E+01  -1.9859039E+00   4.4324241E+00
  -1.5801495E+01  -2.0831544E+00   4.4797339E+00
  -1.6343596E+01  -2.1901665E+00   4.5178804E+00
  -1.6908230E+01  -2.3081377E+00   4.5453196E+00
  -1.7496866E+01  -2.4384050E+00   4.5603309E+00
  -1.8110996E+01  -2.5824633E+00   4.5610123E+00
  -1.8752104E+01  -2.7419846E+00   4.5452790E+00
  -1.9421635E+01  -2.9188433E+00   4.5108705E+00
  -2.0120964E+01  -3.1151452E+00   4.4553528E+00
  -2.0851374E+01  -3.3332655E+00   4.3761325E+00
  -2.1614000E+01  -3.5758946E+00   4.2704577E+00
  -2.2409786E+01  -3.8460765E+00   4.1354394E+00
  -2.3239416E+01  -4.1472864E+00   3.9680412E+00
  -2.4103218E+01  -4.4834876E+00   3.7651026E+00
  -2.5001032E+01  -4.8592057E+00   3.5233588E+00
  -2.5932032E+01  -5.2796097E+00   3.2394967E+00
  -2.6894510E+01  -5.7505913E+00   2.9102664E+00
  -2.7885614E+01  -6.2788448E+00   2.5326414E+00
  -2.8901098E+01  -6.8719387E+00   2.1040816E+00
  -2.9935024E+01  -7.5383558E+00   1.6228496E+00
  -3.0979559E+01  -8.2874851E+00   1.0883843E+00
  -3.2024727E+01  -9.1295071E+00   5.0167763E-01
  -3.3058197E+01  -1.0075071E+01  -1.3439381E-01
  -3.4065022E+01  -1.1134673E+01  -8.1480193E-01
  -3.5027222E+01  -1.2317516E+01  -1.5321348E+00
  -3.5923309E+01  -1.3629710E+01  -2.2762625E+00
  -3.6727810E+01  -1.5071648E+01  -3.0336547E+00
  -3.7411274E+01  -1.6634518E+01  -3.7860835E+00
  -3.7941505E+01  -1.8296322E+01  -4.5085392E+00
  -3.8286976E+01  -2.0018063E+01  -5.1666427E+00
  -3.8423096E+01  -2.1741276E+01  -5.7143240E+00
  -3.8341373E+01  -2.3388515E+01  -6.0931640E+00
  -3.8059959E+01  -2.4868179E+01  -6.2347732E+00
  -3.7632736E+01  -2.6084200E+01  -6.0671077E+00
  -3.7153397E+01  -2.6949532E+01  -5.5240889E+00
  -1.1549910E+01  -8.8040657E+00  -1.1162629E+00
  -8.5493326E-02  -3.7335491E-01   4.3826246E-01
  -7.4797869E-02  -3.9670086E-01   4.3011379E-01
  -5.8923483E-02  -4.1524220E-01   4.2484236E-01
  -4.0027142E-02  -4.2762852E-01   4.2307305E-01
  -2.0434380E-02  -4.3351460E-01   4.2479968E-01
  -2.1376610E-03  -4.3345261E-01   4.2948651E-01
   1.3489246E-02  -4.2857647E-01   4.3630004E-01
   2.5750637E-02  -4.2025185E-01   4.4433784E-01
   3.4539700E-02  -4.0982962E-01   4.5277578E-01
   4.0135384E-02  -3.9843416E-01   4.6099216E-01
  -9.3200254E+00  -1.1006287E+00   3.2644935E+00
  -9.6424341E+00  -1.1308120E+00   3.3479750E+00
  -9.9745092E+00  -1.1625540E+00   3.4319310E+00
  -1.0316570E+01  -1.1960404E+00   3.5161190E+00
  -1.0668985E+01  -1.2314829E+00   3.6002672E+00
  -1.1032173E+01  -1.2691233E+00   3.6840723E+00
  -1.1406612E+01  -1.3092363E+00   3.7671931E+00
  -1.1792850E+01  -1.3521339E+00   3.8492455E+00
  -1.2191509E+01  -1.3981695E+00   3.9297953E+00
  -1.2603296E+01  -1.4477433E+00   4.0083480E+00
  -1.3029007E+01  -1.5013067E+00   4.0843420E+00
  -1.3469541E+01  -1.5593687E+00   4.1571336E+00
  -1.3925893E+01  -1.6225034E+00   4.2259879E+00
  -1.4399167E+01  -1.6913557E+00   4.2900610E+00
  -1.4890576E+01  -1.7666502E+00   4.3483882E+00
  -1.5401434E+01  -1.8492007E+00   4.3998647E+00
  -1.5933154E+01  -1.9399202E+00   4.4432344E+00
  -1.6487240E+01  -2.0398324E+00   4.4770708E+00
  -1.7065271E+01  -2.1500859E+00   4.4997678E+00
  -1.7668886E+01  -2.2719703E+00   4.5095282E+00
  -1.8299763E+01  -2.4069355E+00   4.5043554E+00
  -1.8959595E+01  -2.5566134E+00   4.4820518E+00
  -1.9650078E+01  -2.7228489E+00   4.4402161E+00
  -2.0372866E+01  -2.9077330E+00   4.3762474E+00
  -2.1129562E+01  -3.1136441E+00   4.2873440E+00
  -2.1921679E+01  -3.3433068E+00   4.1705008E+00
  -2.2750589E+01  -3.5998366E+00   4.0225139E+00
  -2.3617485E+01  -3.8868370E+00   3.8399575E+00
  -2.4523275E+01  -4.2084723E+00   3.6191838E+00
  -2.5468460E+01  -4.5695691E+00   3.3563242E+00
  -2.6452969E+01  -4.9757366E+00   3.0473204E+00
  -2.7475941E+01  -5.4334879E+00   2.6879930E+00
  -2.8535463E+01  -5.9503889E+00   2.2741776E+00
  -2.9628302E+01  -6.5352030E+00   1.8019276E+00
  -3.0749584E+01  -7.1980329E+00   1.2677635E+00
  -3.1892511E+01  -7.9504337E+00   6.6896391E-01
  -3.3047962E+01  -8.8054028E+00   3.8292408E-03
  -3.4204048E+01  -9.7771969E+00  -7.2808629E-01
  -3.5345375E+01  -1.0880734E+01  -1.5257926E+00
  -3.6452019E+01  -1.2130423E+01  -2.3865888E+00
  -3.7498169E+01  -1.3538090E+01  -3.3054550E+00
  -3.8450592E+01  -1.5109735E+01  -4.2737236E+00
  -3.9267708E+01  -1.6841034E+01  -5.2765703E+00
  -3.9900307E+01  -1.8711720E+01  -6.2891078E+00
  -4.0295498E+01  -2.0679756E+01  -7.2714863E+00
  -4.0405304E+01  -2.2676825E+01  -8.1642828E+00
  -4.0200005E+01  -2.4607380E+01  -8.8863373E+00
  -3.9684532E+01  -2.6353733E+01  -9.3376064E+00
  -3.8913544E+01  -2.7788651E+01  -9.4087696E+00
  -3.7999134E+01  -2.8794357E+01  -8.9969082E+00
  -3.7105957E+01  -2.9283937E+01  -8.0238562E+00
  -1.5113788E+01  -1.2288511E+01  -2.4228044E+00
  -9.9394083E-02  -4.0805626E-01   3.9751148E-01
  -7.6825619E-02  -4.3254852E-01   3.8854647E-01
  -5.0283909E-02  -4.4851971E-01   3.8554287E-01
  -2.3300648E-02  -4.5567322E-01   3.8830376E-01
   1.2359619E-03  -4.5496845E-01   3.9578605E-01
   2.1497726E-02  -4.4813251E-01   4.0648985E-01
   3.6731243E-02  -4.3714142E-01   4.1887069E-01
   4.7029972E-02  -4.2382526E-01   4.3163311E-01
   5.3013325E-02  -4.0965986E-01   4.4382590E-01
  -9.3626137E+00  -1.0177587E+00   3.2660234E+00
  -9.6870689E+00  -1.0451682E+00   3.3484094E+00
  -1.0021388E+01  -1.0740157E+00   3.4311590E+00
  -1.0365920E+01  -1.1044716E+00   3.5140259E+00
  -1.0721061E+01  -1.1367301E+00   3.5967348E+00
  -1.1087261E+01  -1.1710129E+00   3.6789784E+00
  -1.1465039E+01  -1.2075720E+00   3.7604113E+00
  -1.1854982E+01  -1.2466940E+00   3.8406439E+00
  -1.2257760E+01  -1.2887033E+00   3.9192357E+00
  -1.2674133E+01  -1.3339682E+00   3.9956853E+00
  -1.3104958E+01  -1.3829043E+00   4.0694213E+00
  -1.3551194E+01  -1.4359813E+00   4.1397882E+00
  -1.4013916E+01  -1.4937292E+00   4.2060342E+00
  -1.4494309E+01  -1.5567458E+00   4.2672963E+00
  -1.4993675E+01  -1.6257037E+00   4.3225832E+00
  -1.5513436E+01  -1.7013606E+00   4.3707600E+00
  -1.6055119E+01  -1.7845697E+00   4.4105277E+00
  -1.6620358E+01  -1.8762912E+00   4.4404120E+00
  -1.7210876E+01  -1.9776068E+00   4.4587440E+00
  -1.7828484E+01  -2.0897374E+00   4.4636507E+00
  -1.8475042E+01  -2.2140625E+00   4.4530425E+00
  -1.9152470E+01  -2.3521464E+00   4.4246097E+00
  -1.9862703E+01  -2.5057671E+00   4.3758130E+00
  -2.0607697E+01  -2.6769574E+00   4.3038826E+00
  -2.1389391E+01  -2.8680513E+00   4.2058043E+00
  -2.2209696E+01  -3.0817351E+00   4.0783238E+00
  -2.3070465E+01  -3.3211322E+00   3.9179063E+00
  -2.3973444E+01  -3.5898786E+00   3.7207210E+00
  -2.4920202E+01  -3.8922348E+00   3.4826121E+00
  -2.5912010E+01  -4.2332044E+00   3.1990685E+00
  -2.6949707E+01  -4.6186881E+00   2.8652225E+00
  -2.8033484E+01  -5.0556579E+00   2.4758747E+00
  -2.9162645E+01  -5.5523634E+00   2.0255764E+00
  -3.0335348E+01  -6.1185694E+00   1.5087441E+00
  -3.1548290E+01  -6.7658134E+00   9.1982013E-01
  -3.2796329E+01  -7.5076447E+00   2.5340360E-01
  -3.4072006E+01  -8.3598089E+00  -4.9564815E-01
  -3.5364777E+01  -9.3402052E+00  -1.3322020E+00
  -3.6659794E+01  -1.0468477E+01  -2.2608325E+00
  -3.7936111E+01  -1.1764894E+01  -3.2856019E+00
  -3.9164127E+01  -1.3248146E+01  -4.4092445E+00
  -4.0302631E+01  -1.4931612E+01  -5.6310892E+00
  -4.1296310E+01  -1.6817810E+01  -6.9430485E+00
  -4.2075306E+01  -1.8890980E+01  -8.3232431E+00
  -4.2559288E+01  -2.1108711E+01  -9.7276897E+00
  -4.2668343E+01  -2.3394390E+01  -1.1081903E+01
  -4.2341774E+01  -2.5633850E+01  -1.2275848E+01
  -4.1562809E+01  -2.7679855E+01  -1.3166492E+01
  -4.0382965E+01  -2.9367550E+01  -1.3591597E+01
  -3.8936520E+01  -3.0540550E+01  -1.3394741E+01
  -3.7435368E+01  -3.1081898E+01  -1.2455923E+01
  -3.6141041E+01  -3.0940178E+01  -1.0717607E+01
  -7.5373130E+00  -6.6708546E+00  -1.4442186E+00
  -1.0018015E-01  -4.4725227E-01   3.4057903E-01
  -6.3244343E-02  -4.6780968E-01   3.3564663E-01
  -2.6440620E-02  -4.7664070E-01   3.3995962E-01
   6.0997009E-03  -4.7529125E-01   3.5156107E-01
   3.2044411E-02  -4.6630859E-01   3.6786747E-01
   5.0679207E-02  -4.5244026E-01   3.8637519E-01
   6.2473297E-02  -4.3609190E-01   4.0507412E-01
   6.8553925E-02  -4.1910172E-01   4.2260134E-01
  -9.4013386E+00  -9.3182045E-01   3.2677505E+00
  -9.7276611E+00  -9.5622748E-01   3.3491740E+00
  -1.0064027E+01  -9.8193288E-01   3.4308634E+00
  -1.0410808E+01  -1.0090897E+00   3.5125682E+00
  -1.0768428E+01  -1.0378728E+00   3.5940104E+00
  -1.1137369E+01  -1.0684813E+00   3.6748786E+00
  -1.1518181E+01  -1.1011423E+00   3.7548234E+00
  -1.1911492E+01  -1.1361134E+00   3.8334510E+00
  -1.2318013E+01  -1.1736873E+00   3.9103148E+00
  -1.2738554E+01  -1.2141957E+00   3.9849060E+00
  -1.3174023E+01  -1.2580142E+00   4.0566435E+00
  -1.3625443E+01  -1.3055674E+00   4.1248617E+00
  -1.4093955E+01  -1.3573356E+00   4.1887922E+00
  -1.4580823E+01  -1.4138610E+00   4.2475543E+00
  -1.5087435E+01  -1.4757559E+00   4.3001318E+00
  -1.5615307E+01  -1.5437117E+00   4.3453588E+00
  -1.6166077E+01  -1.6185083E+00   4.3818989E+00
  -1.6741505E+01  -1.7010280E+00   4.4082294E+00
  -1.7343452E+01  -1.7922678E+00   4.4226227E+00
  -1.7973888E+01  -1.8933578E+00   4.4231334E+00
  -1.8634867E+01  -2.0055814E+00   4.4075837E+00
  -1.9328510E+01  -2.1304026E+00   4.3735547E+00
  -2.0057011E+01  -2.2694957E+00   4.3183742E+00
  -2.0822615E+01  -2.4247866E+00   4.2391067E+00
  -2.1627615E+01  -2.5985050E+00   4.1325340E+00
  -2.2474329E+01  -2.7932379E+00   3.9951458E+00
  -2.3365112E+01  -3.0120189E+00   3.8230853E+00
  -2.4302303E+01  -3.2584171E+00   3.6121140E+00
  -2.5288185E+01  -3.5366557E+00   3.3575559E+00
  -2.6324884E+01  -3.8517578E+00   3.0542383E+00
  -2.7414265E+01  -4.2097235E+00   2.6964469E+00
  -2.8557747E+01  -4.6177506E+00   2.2778983E+00
  -2.9756109E+01  -5.0844979E+00   1.7917404E+00
  -3.1009256E+01  -5.6204090E+00   1.2305727E+00
  -3.2315929E+01  -6.2380853E+00   5.8644676E-01
  -3.3673313E+01  -6.9526806E+00  -1.4919519E-01
  -3.5076447E+01  -7.7822704E+00  -9.8568761E-01
  -3.6517208E+01  -8.7480688E+00  -1.9334351E+00
  -3.7982548E+01  -9.8742390E+00  -3.0042174E+00
  -3.9451813E+01  -1.1187016E+01  -4.2111936E+00
  -4.0892780E+01  -1.2712553E+01  -5.5679827E+00
  -4.2256779E+01  -1.4472939E+01  -7.0859051E+00
  -4.3473877E+01  -1.6479725E+01  -8.7682085E+00
  -4.4450451E+01  -1.8724785E+01  -1.0600550E+01
  -4.5072392E+01  -2.1168917E+01  -1.2537866E+01
  -4.5218067E+01  -2.3730598E+01  -1.4490194E+01
  -4.4783504E+01  -2.6278671E+01  -1.6312193E+01
  -4.3718410E+01  -2.8635101E+01  -1.7803843E+01
  -4.2064545E+01  -3.0592903E+01  -1.8729237E+01
  -3.9981316E+01  -3.1950134E+01  -1.8854811E+01
  -3.7742359E+01  -3.2553284E+01  -1.7999411E+01
  -3.5695347E+01  -3.2335098E+01  -1.6078413E+01
  -3.4194641E+01  -3.1331299E+01  -1.3122892E+01
  -1.3038635E-01  -4.5548630E-01   2.7996731E-01
  -7.9687119E-02  -4.8180008E-01   2.7200317E-01
  -3.0174255E-02  -4.9293041E-01   2.7841568E-01
   1.2421608E-02  -4.9125195E-01   2.9575109E-01
   4.5174599E-02  -4.8033237E-01   3.1973696E-01
   6.7589760E-02  -4.6378613E-01   3.4646606E-01
   8.0776215E-02  -4.4468307E-01   3.7295961E-01
   8.6586952E-02  -4.2522049E-01   3.9733815E-01
  -9.4357862E+00  -8.4330338E-01   3.2696562E+00
  -9.7637720E+00  -8.6451107E-01   3.3502522E+00
  -1.0101960E+01  -8.8686055E-01   3.4310288E+00
  -1.0450744E+01  -9.1048610E-01   3.5117335E+00
  -1.0810569E+01  -9.3554115E-01   3.5920842E+00
  -1.1181948E+01  -9.6220040E-01   3.6717670E+00
  -1.1565457E+01  -9.9066329E-01   3.7504284E+00
  -1.1961761E+01  -1.0211561E+00   3.8276701E+00
  -1.2371609E+01  -1.0539362E+00   3.9030402E+00
  -1.2795851E+01  -1.0892953E+00   3.9760242E+00
  -1.3235447E+01  -1.1275642E+00   4.0460320E+00
  -1.3691475E+01  -1.1691176E+00   4.1123862E+00
  -1.4165136E+01  -1.2143797E+00   4.1743069E+00
  -1.4657763E+01  -1.2638305E+00   4.2308941E+00
  -1.5170824E+01  -1.3180131E+00   4.2811098E+00
  -1.5705923E+01  -1.3775417E+00   4.3237596E+00
  -1.6264801E+01  -1.4431121E+00   4.3574724E+00
  -1.6849327E+01  -1.5155128E+00   4.3806801E+00
  -1.7461500E+01  -1.5956386E+00   4.3916035E+00
  -1.8103439E+01  -1.6845071E+00   4.3882279E+00
  -1.8777367E+01  -1.7832803E+00   4.3682938E+00
  -1.9485617E+01  -1.8932880E+00   4.3292804E+00
  -2.0230618E+01  -2.0160611E+00   4.2683907E+00
  -2.1014904E+01  -2.1533709E+00   4.1825337E+00
  -2.1841106E+01  -2.3072813E+00   4.0682964E+00
  -2.2711962E+01  -2.4802032E+00   3.9219241E+00
  -2.3630320E+01  -2.6749878E+00   3.7392492E+00
  -2.4599127E+01  -2.8950169E+00   3.5156362E+00
  -2.5621399E+01  -3.1443300E+00   3.2458997E+00
  -2.6700169E+01  -3.4277825E+00   2.9242072E+00
  -2.7838402E+01  -3.7512414E+00   2.5439935E+00
  -2.9038870E+01  -4.1218362E+00   2.0978594E+00
  -3.0304010E+01  -4.5482702E+00   1.5774927E+00
  -3.1635757E+01  -5.0412140E+00   9.7354758E-01
  -3.3035309E+01  -5.6137748E+00   2.7546483E-01
  -3.4502766E+01  -6.2820425E+00  -5.2885222E-01
  -3.6036491E+01  -7.0656514E+00  -1.4535630E+00
  -3.7631863E+01  -7.9882536E+00  -2.5156231E+00
  -3.9279037E+01  -9.0776653E+00  -3.7355769E+00
  -4.0959290E+01  -1.0365320E+01  -5.1380167E+00
  -4.2639481E+01  -1.1884416E+01  -6.7508059E+00
  -4.4264835E+01  -1.3665989E+01  -8.6017952E+00
  -4.5751091E+01  -1.5731939E+01  -1.0711250E+01
  -4.6978794E+01  -1.8084368E+01  -1.3078520E+01
  -4.7794502E+01  -2.0691460E+01  -1.5662754E+01
  -4.8024700E+01  -2.3471704E+01  -1.8360027E+01
  -4.7508148E+01  -2.6281878E+01  -2.0984257E+01
  -4.6146217E+01  -2.8916290E+01  -2.3263132E+01
  -4.3960953E+01  -3.1125893E+01  -2.4861595E+01
  -4.1138348E+01  -3.2660534E+01  -2.5438494E+01
  -3.8029423E+01  -3.3326374E+01  -2.4725357E+01
  -3.5094563E+01  -3.3038258E+01  -2.2598980E+01
  -3.2804005E+01  -3.1843643E+01  -1.9114185E+01
  -3.1533081E+01  -2.9905872E+01  -1.4479577E+01
  -1.0057926E-01  -4.8537445E-01   1.9507790E-01
  -3.5117149E-02  -4.9976349E-01   2.0394897E-01
   1.9701004E-02  -4.9858952E-01   2.2869396E-01
   6.0381889E-02  -4.8653984E-01   2.6258278E-01
   8.6912155E-02  -4.6820927E-01   2.9971504E-01
   1.0133266E-01  -4.4725704E-01   3.3588791E-01
   1.0649109E-01  -4.2622185E-01   3.6858821E-01
  -9.4655762E+00  -7.5264579E-01   3.2716613E+00
  -9.7950010E+00  -7.7048755E-01   3.3515646E+00
  -1.0134766E+01  -7.8930008E-01   3.4315770E+00
  -1.0485281E+01  -8.0919731E-01   3.5114429E+00
  -1.0847014E+01  -8.3030957E-01   3.5908782E+00
  -1.1220499E+01  -8.5278553E-01   3.6695657E+00
  -1.1606340E+01  -8.7679440E-01   3.7471490E+00
  -1.2005229E+01  -9.0252888E-01   3.8232257E+00
  -1.2417950E+01  -9.3020785E-01   3.8973393E+00
  -1.2845388E+01  -9.6007985E-01   3.9689693E+00
  -1.3288551E+01  -9.9242705E-01   4.0375190E+00
  -1.3748559E+01  -1.0275694E+00   4.1023011E+00
  -1.4226670E+01  -1.0658695E+00   4.1625228E+00
  -1.4724278E+01  -1.1077380E+00   4.2172689E+00
  -1.5242920E+01  -1.1536412E+00   4.2654819E+00
  -1.5784279E+01  -1.2041072E+00   4.3059425E+00
  -1.6350183E+01  -1.2597352E+00   4.3372469E+00
  -1.6942610E+01  -1.3212067E+00   4.3577909E+00
  -1.7563669E+01  -1.3892967E+00   4.3657427E+00
  -1.8215620E+01  -1.4648902E+00   4.3590307E+00
  -1.8900846E+01  -1.5490013E+00   4.3353205E+00
  -1.9621864E+01  -1.6427956E+00   4.2920003E+00
  -2.0381332E+01  -1.7476208E+00   4.2261591E+00
  -2.1182043E+01  -1.8650446E+00   4.1345649E+00
  -2.2026960E+01  -1.9969038E+00   4.0136271E+00
  -2.2919201E+01  -2.1453576E+00   3.8593657E+00
  -2.3862101E+01  -2.3129754E+00   3.6673255E+00
  -2.4859188E+01  -2.5028279E+00   3.4324992E+00
  -2.5914211E+01  -2.7186131E+00   3.1492202E+00
  -2.7031099E+01  -2.9648132E+00   2.8110304E+00
  -2.8213932E+01  -3.2469010E+00   2.4105389E+00
  -2.9466879E+01  -3.5716000E+00   1.9392607E+00
  -3.0794128E+01  -3.9472203E+00   1.3874239E+00
  -3.2199806E+01  -4.3840914E+00   7.4371225E-01
  -3.3687843E+01  -4.8951035E+00  -5.1358342E-03
  -3.5261673E+01  -5.4963470E+00  -8.7496978E-01
  -3.6923626E+01  -6.2078476E+00  -1.8851657E+00
  -3.8673512E+01  -7.0542679E+00  -3.0599356E+00
  -4.0505997E+01  -8.0653811E+00  -4.4298019E+00
  -4.2405994E+01  -9.2759581E+00  -6.0327296E+00
  -4.4341530E+01  -1.0724393E+01  -7.9138479E+00
  -4.6253822E+01  -1.2449157E+01  -1.0121946E+01
  -4.8045784E+01  -1.4481918E+01  -1.2700270E+01
  -4.9571918E+01  -1.6836111E+01  -1.5669133E+01
  -5.0635704E+01  -1.9490612E+01  -1.8998928E+01
  -5.1003227E+01  -2.2370152E+01  -2.2576035E+01
  -5.0442245E+01  -2.5327938E+01  -2.6170773E+01
  -4.8789551E+01  -2.8140146E+01  -2.9424229E+01
  -4.6034954E+01  -3.0524328E+01  -3.1875380E+01
  -4.2389816E+01  -3.2188175E+01  -3.3040764E+01
  -3.8297272E+01  -3.2900719E+01  -3.2533642E+01
  -3.4357620E+01  -3.2559700E+01  -3.0177917E+01
  -3.1185966E+01  -3.1223459E+01  -2.6061543E+01
  -2.9261562E+01  -2.9089697E+01  -2.0499058E+01
  -4.6200209E+00  -4.5357246E+00  -2.0876465E+00
  -4.2400360E-02  -4.9152565E-01   1.1966515E-01
   2.6733398E-02  -4.9235630E-01   1.5307331E-01
   7.6389313E-02  -4.8087311E-01   1.9869709E-01
   1.0733318E-01  -4.6249485E-01   2.4807405E-01
   1.2288094E-01  -4.4140387E-01   2.9543686E-01
   1.2710190E-01  -4.2034721E-01   3.3761334E-01
  -9.4903774E+00  -6.6024685E-01   3.2736571E+00
  -9.8210011E+00  -6.7458564E-01   3.3530014E+00
  -1.0162077E+01  -6.8971181E-01   3.4323955E+00
  -1.0514033E+01  -7.0571804E-01   3.5115826E+00
  -1.0877355E+01  -7.2271007E-01   3.5902765E+00
  -1.1252590E+01  -7.4080861E-01   3.6681576E+00
  -1.1640369E+01  -7.6015127E-01   3.7448666E+00
  -1.2041409E+01  -7.8089458E-01   3.8199980E+00
  -1.2456517E+01  -8.0321664E-01   3.8930917E+00
  -1.2886616E+01  -8.2731986E-01   3.9636219E+00
  -1.3332744E+01  -8.5343421E-01   4.0309854E+00
  -1.3796063E+01  -8.8182056E-01   4.0944872E+00
  -1.4277878E+01  -9.1277504E-01   4.1533246E+00
  -1.4779633E+01  -9.4663376E-01   4.2065682E+00
  -1.5302923E+01  -9.8377842E-01   4.2531443E+00
  -1.5849499E+01  -1.0246423E+00   4.2918119E+00
  -1.6421267E+01  -1.0697185E+00   4.3211408E+00
  -1.7020288E+01  -1.1195680E+00   4.3394933E+00
  -1.7648781E+01  -1.1748316E+00   4.3449974E+00
  -1.8309114E+01  -1.2362424E+00   4.3355279E+00
  -1.9003817E+01  -1.3046429E+00   4.3086896E+00
  -1.9735567E+01  -1.3810056E+00   4.2617903E+00
  -2.0507219E+01  -1.4664588E+00   4.1918221E+00
  -2.1321804E+01  -1.5623204E+00   4.0954299E+00
  -2.2182570E+01  -1.6701418E+00   3.9688680E+00
  -2.3092991E+01  -1.7917564E+00   3.8079598E+00
  -2.4056829E+01  -1.9293574E+00   3.6079941E+00
  -2.5078163E+01  -2.0855818E+00   3.3636353E+00
  -2.6161402E+01  -2.2636261E+00   3.0687859E+00
  -2.7311321E+01  -2.4673944E+00   2.7164214E+00
  -2.8533062E+01  -2.7016904E+00   2.2983985E+00
  -2.9832138E+01  -2.9724712E+00   1.8052243E+00
  -3.1214457E+01  -3.2871761E+00   1.2257609E+00