# vtk DataFile Version 3.0
T01 + IGRF magnetic field in GSW coordinates
ASCII
DATASET STRUCTURED_GRID
DIMENSIONS     61    21    21
POINTS    26901 float
     -50.000000     -10.000000     -10.000000
     -49.000000     -10.000000     -10.000000
     -48.000000     -10.000000     -10.000000
     -47.000000     -10.000000     -10.000000
     -46.000000     -10.000000     -10.000000
     -45.000000     -10.000000     -10.000000
     -44.000000     -10.000000     -10.000000
     -43.000000     -10.000000     -10.000000
     -42.000000     -10.000000     -10.000000
     -41.000000     -10.000000     -10.000000
     -40.000000     -10.000000     -10.000000
     -39.000000     -10.000000     -10.000000
     -38.000000     -10.000000     -10.000000
     -37.000000     -10.000000     -10.000000
     -36.000000     -10.000000     -10.000000
     -35.000000     -10.000000     -10.000000
     -34.000000     -10.000000     -10.000000
     -33.000000     -10.000000     -10.000000
     -32.000000     -10.000000     -10.000000
     -31.000000     -10.000000     -10.000000
     -30.000000     -10.000000     -10.000000
     -29.000000     -10.000000     -10.000000
     -28.000000     -10.000000     -10.000000
     -27.000000     -10.000000     -10.000000
     -26.000000     -10.000000     -10.000000
     -25.000000     -10.000000     -10.000000
     -24.000000     -10.000000     -10.000000
     -23.000000     -10.000000     -10.000000
     -22.000000     -10.000000     -10.000000
     -21.000000     -10.000000     -10.000000
     -20.000000     -10.000000     -10.000000
     -19.000000     -10.000000     -10.000000
     -18.000000     -10.000000     -10.000000
     -17.000000     -10.000000     -10.000000
     -16.000000     -10.000000     -10.000000
     -15.000000     -10.000000     -10.000000
     -14.000000     -10.000000     -10.000000
     -13.000000     -10.000000     -10.000000
     -12.000000     -10.000000     -10.000000
     -11.000000     -10.000000     -10.000000
     -10.000000     -10.000000     -10.000000
      -9.000000     -10.000000     -10.000000
      -8.000000     -10.000000     -10.000000
      -7.000000     -10.000000     -10.000000
      -6.000000     -10.000000     -10.000000
      -5.000000     -10.000000     -10.000000
      -4.000000     -10.000000     -10.000000
      -3.000000     -10.000000     -10.000000
      -2.000000     -10.000000     -10.000000
      -1.000000     -10.000000     -10.000000
       0.000000     -10.000000     -10.000000
       1.000000     -10.000000     -10.000000
       2.000000     -10.000000     -10.000000
       3.000000     -10.000000     -10.000000
       4.000000     -10.000000     -10.000000
       5.000000     -10.000000     -10.000000
       6.000000     -10.000000     -10.000000
       7.000000     -10.000000     -10.000000
       8.000000     -10.000000     -10.000000
       9.000000     -10.000000     -10.000000
      10.000000     -10.000000     -10.000000
     -50.000000      -9.000000     -10.000000
     -49.000000      -9.000000     -10.000000
     -48.000000      -9.000000     -10.000000
     -47.000000      -9.000000     -10.000000
     -46.000000      -9.000000     -10.000000
     -45.000000      -9.000000     -10.000000
     -44.000000      -9.000000     -10.000000
     -43.000000      -9.000000     -10.000000
     -42.000000      -9.000000     -10.000000
     -41.000000      -9.000000     -10.000000
     -40.000000      -9.000000     -10.000000
     -39.000000      -9.000000     -10.000000
     -38.000000      -9.000000     -10.000000
     -37.000000      -9.000000     -10.000000
     -36.000000      -9.000000     -10.000000
     -35.000000      -9.000000     -10.000000
     -34.000000      -9.000000     -10.000000
     -33.000000      -9.000000     -10.000000
     -32.000000      -9.000000     -10.000000
     -31.000000      -9.000000     -10.000000
     -30.000000      -9.000000     -10.000000
     -29.000000      -9.000000     -10.000000
     -28.000000      -9.000000     -10.000000
     -27.000000      -9.000000     -10.000000
     -26.000000      -9.000000     -10.000000
     -25.000000      -9.000000     -10.000000
     -24.000000      -9.000000     -10.000000
     -23.000000      -9.000000     -10.000000
     -22.000000      -9.000000     -10.000000
     -21.000000      -9.000000     -10.000000
     -20.000000      -9.000000     -10.000000
     -19.000000      -9.000000     -10.000000
     -18.000000      -9.000000     -10.000000
     -17.000000      -9.000000     -10.000000
     -16.000000      -9.000000     -10.000000
     -15.000000      -9.000000     -10.000000
     -14.000000      -9.000000     -10.000000
     -13.000000      -9.000000     -10.000000
     -12.000000      -9.000000     -10.000000
     -11.000000      -9.000000     -10.000000
     -10.000000      -9.000000     -10.000000
      -9.000000      -9.000000     -10.000000
      -8.000000      -9.000000     -10.000000
      -7.000000      -9.000000     -10.000000
      -6.000000      -9.000000     -10.000000
      -5.000000      -9.000000     -10.000000
      -4.000000      -9.000000     -10.000000
      -3.000000      -9.000000     -10.000000
      -2.000000      -9.000000     -10.000000
      -1.000000      -9.000000     -10.000000
       0.000000      -9.000000     -10.000000
       1.000000      -9.000000     -10.000000
       2.000000      -9.000000     -10.000000
       3.000000      -9.000000     -10.000000
       4.000000      -9.000000     -10.000000
       5.000000      -9.000000     -10.000000
       6.000000      -9.000000     -10.000000
       7.000000      -9.000000     -10.000000
       8.000000      -9.000000     -10.000000
       9.000000      -9.000000     -10.000000
      10.000000      -9.000000     -10.000000
     -50.000000      -8.000000     -10.000000
     -49.000000      -8.000000     -10.000000
     -48.000000      -8.000000     -10.000000
     -47.000000      -8.000000     -10.000000
     -46.000000      -8.000000     -10.000000
     -45.000000      -8.000000     -10.000000
     -44.000000      -8.000000     -10.000000
     -43.000000      -8.000000     -10.000000
     -42.000000      -8.000000     -10.000000
     -41.000000      -8.000000     -10.000000
     -40.000000      -8.000000     -10.000000
     -39.000000      -8.000000     -10.000000
     -38.000000      -8.000000     -10.000000
     -37.000000      -8.000000     -10.000000
     -36.000000      -8.000000     -10.000000
     -35.000000      -8.000000     -10.000000
     -34.000000      -8.000000     -10.000000
     -33.000000      -8.000000     -10.000000
     -32.000000      -8.000000     -10.000000
     -31.000000      -8.000000     -10.000000
     -30.000000      -8.000000     -10.000000
     -29.000000      -8.000000     -10.000000
     -28.000000      -8.000000     -10.000000
     -27.000000      -8.000000     -10.000000
     -26.000000      -8.000000     -10.000000
     -25.000000      -8.000000     -10.000000
     -24.000000      -8.000000     -10.000000
     -23.000000      -8.000000     -10.000000
     -22.000000      -8.000000     -10.000000
     -21.000000      -8.000000     -10.000000
     -20.000000      -8.000000     -10.000000
     -19.000000      -8.000000     -10.000000
     -18.000000      -8.000000     -10.000000
     -17.000000      -8.000000     -10.000000
     -16.000000      -8.000000     -10.000000
     -15.000000      -8.000000     -10.000000
     -14.000000      -8.000000     -10.000000
     -13.000000      -8.000000     -10.000000
     -12.000000      -8.000000     -10.000000
     -11.000000      -8.000000     -10.000000
     -10.000000      -8.000000     -10.000000
      -9.000000      -8.000000     -10.000000
      -8.000000      -8.000000     -10.000000
      -7.000000      -8.000000     -10.000000
      -6.000000      -8.000000     -10.000000
      -5.000000      -8.000000     -10.000000
      -4.000000      -8.000000     -10.000000
      -3.000000      -8.000000     -10.000000
      -2.000000      -8.000000     -10.000000
      -1.000000      -8.000000     -10.000000
       0.000000      -8.000000     -10.000000
       1.000000      -8.000000     -10.000000
       2.000000      -8.000000     -10.000000
       3.000000      -8.000000     -10.000000
       4.000000      -8.000000     -10.000000
       5.000000      -8.000000     -10.000000
       6.000000      -8.000000     -10.000000
       7.000000      -8.000000     -10.000000
       8.000000      -8.000000     -10.000000
       9.000000      -8.000000     -10.000000
      10.000000      -8.000000     -10.000000
     -50.000000      -7.000000     -10.000000
     -49.000000      -7.000000     -10.000000
     -48.000000      -7.000000     -10.000000
     -47.000000      -7.000000     -10.000000
     -46.000000      -7.000000     -10.000000
     -45.000000      -7.000000     -10.000000
     -44.000000      -7.000000     -10.000000
     -43.000000      -7.000000     -10.000000
     -42.000000      -7.000000     -10.000000
     -41.000000      -7.000000     -10.000000
     -40.000000      -7.000000     -10.000000
     -39.000000      -7.000000     -10.000000
     -38.000000      -7.000000     -10.000000
     -37.000000      -7.000000     -10.000000
     -36.000000      -7.000000     -10.000000
     -35.000000      -7.000000     -10.000000
     -34.000000      -7.000000     -10.000000
     -33.000000      -7.000000     -10.000000
     -32.000000      -7.000000     -10.000000
     -31.000000      -7.000000     -10.000000
     -30.000000      -7.000000     -10.000000
     -29.000000      -7.000000     -10.000000
     -28.000000      -7.000000     -10.000000
     -27.000000      -7.000000     -10.000000
     -26.000000      -7.000000     -10.000000
     -25.000000      -7.000000     -10.000000
[...]
POINT_DATA    26901
VECTORS B_total float
  -1.0166145E+01  -1.4788512E+00   3.1880431E+00
  -1.0506978E+01  -1.5193976E+00   3.2756369E+00
  -1.0856861E+01  -1.5614684E+00   3.3639350E+00
  -1.1216005E+01  -1.6052333E+00   3.4526322E+00
  -1.1584662E+01  -1.6508899E+00   3.5413816E+00
  -1.1963128E+01  -1.6986649E+00   3.6297910E+00
  -1.2351748E+01  -1.7488190E+00   3.7174158E+00
  -1.2750933E+01  -1.8016497E+00   3.8037546E+00
  -1.3161154E+01  -1.8574955E+00   3.8882382E+00
  -1.3582956E+01  -1.9167408E+00   3.9702246E+00
  -1.4016969E+01  -1.9798195E+00   4.0489874E+00
  -1.4463900E+01  -2.0472209E+00   4.1237049E+00
  -1.4924547E+01  -2.1194947E+00   4.1934495E+00
  -1.5399799E+01  -2.1972580E+00   4.2571754E+00
  -1.5890626E+01  -2.2812011E+00   4.3137069E+00
  -1.6398087E+01  -2.3720975E+00   4.3617258E+00
  -1.6923309E+01  -2.4708102E+00   4.3997612E+00
  -1.7467487E+01  -2.5783048E+00   4.4261813E+00
  -1.8031855E+01  -2.6956620E+00   4.4391880E+00
  -1.8617674E+01  -2.8240929E+00   4.4368119E+00
  -1.9226204E+01  -2.9649572E+00   4.4169192E+00
  -1.9858673E+01  -3.1197882E+00   4.3772154E+00
  -2.0516245E+01  -3.2903199E+00   4.3152561E+00
  -2.1199980E+01  -3.4785209E+00   4.2284651E+00
  -2.1910788E+01  -3.6866360E+00   4.1141491E+00
  -2.2649372E+01  -3.9172347E+00   3.9695215E+00
  -2.3416164E+01  -4.1732669E+00   3.7917187E+00
  -2.4211222E+01  -4.4581270E+00   3.5778353E+00
  -2.5034094E+01  -4.7757254E+00   3.3249602E+00
  -2.5883667E+01  -5.1305695E+00   3.0302429E+00
  -2.6757950E+01  -5.5278425E+00   2.6909955E+00
  -2.7653807E+01  -5.9734888E+00   2.3048601E+00
  -2.8566668E+01  -6.4742861E+00   1.8700447E+00
  -2.9490223E+01  -7.0379038E+00   1.3856528E+00
  -3.0416094E+01  -7.6728888E+00   8.5209036E-01
  -3.1333561E+01  -8.3885651E+00   2.7154440E-01
  -3.2229298E+01  -9.1947393E+00  -3.5150892E-01
  -3.3087173E+01  -1.0101131E+01  -1.0098001E+00
  -3.3888092E+01  -1.1116350E+01  -1.6927619E+00
  -3.4609867E+01  -1.2246267E+01  -2.3860059E+00
  -3.5227318E+01  -1.3491680E+01  -3.0706756E+00
  -3.5712692E+01  -1.4845149E+01  -3.7224507E+00
  -3.6036980E+01  -1.6287270E+01  -4.3100991E+00
  -3.6172745E+01  -1.7782818E+01  -4.7935247E+00
  -3.6099224E+01  -1.9277813E+01  -5.1218090E+00
  -3.5809845E+01  -2.0698702E+01  -5.2321262E+00
  -3.5321598E+01  -2.1955261E+01  -5.0509310E+00
  -3.4684032E+01  -2.2947893E+01  -4.4983025E+00
  -3.3984829E+01  -2.3579185E+01  -3.4955978E+00
  -3.9756653E+00  -3.1226997E+00   2.2039986E-01
   1.5334988E-01  -1.7038059E-01   5.6003761E-01
   1.2268639E-01  -1.4113331E-01   5.8436108E-01
   8.4617615E-02  -1.2219906E-01   6.0077667E-01
   4.4043541E-02  -1.1472702E-01   6.0819411E-01
   5.6734085E-03  -1.1804295E-01   6.0706997E-01
  -2.6909351E-02  -1.3008308E-01   5.9904349E-01
  -5.1705837E-02  -1.4805889E-01   5.8638638E-01
  -6.8258762E-02  -1.6913080E-01   5.7140636E-01
  -7.7270508E-02  -1.9090080E-01   5.5603218E-01
  -8.0121517E-02  -2.1161509E-01   5.4164815E-01
  -7.8404903E-02  -2.3020744E-01   5.2906489E-01
  -1.0208901E+01  -1.3774872E+00   3.1798093E+00
  -1.0551243E+01  -1.4146682E+00   3.2655869E+00
  -1.0902800E+01  -1.4532483E+00   3.3519077E+00
  -1.1263811E+01  -1.4933840E+00   3.4384613E+00
  -1.1634557E+01  -1.5352569E+00   3.5248966E+00
  -1.2015365E+01  -1.5790762E+00   3.6108165E+00
  -1.2406620E+01  -1.6250821E+00   3.6957724E+00
  -1.2808768E+01  -1.6735499E+00   3.7792566E+00
  -1.3222328E+01  -1.7247925E+00   3.8606954E+00
  -1.3647893E+01  -1.7791655E+00   3.9394398E+00
  -1.4086142E+01  -1.8370719E+00   4.0147548E+00
  -1.4537841E+01  -1.8989664E+00   4.0858097E+00
  -1.5003850E+01  -1.9653620E+00   4.1516657E+00
  -1.5485125E+01  -2.0368347E+00   4.2112622E+00
  -1.5982711E+01  -2.1140332E+00   4.2634044E+00
  -1.6497746E+01  -2.1976850E+00   4.3067522E+00
  -1.7031454E+01  -2.2886074E+00   4.3398075E+00
  -1.7585121E+01  -2.3877199E+00   4.3609028E+00
  -1.8160105E+01  -2.4960570E+00   4.3681965E+00
  -1.8757792E+01  -2.6147873E+00   4.3596649E+00
  -1.9379591E+01  -2.7452338E+00   4.3331051E+00
  -2.0026909E+01  -2.8889010E+00   4.2861342E+00
  -2.0701107E+01  -3.0475066E+00   4.2161961E+00
  -2.1403492E+01  -3.2230244E+00   4.1205683E+00
  -2.2135256E+01  -3.4177275E+00   3.9963717E+00
  -2.2897436E+01  -3.6342525E+00   3.8405802E+00
  -2.3690865E+01  -3.8756671E+00   3.6500201E+00
  -2.4516064E+01  -4.1455517E+00   3.4213965E+00
  -2.5373129E+01  -4.4480972E+00   3.1513000E+00
  -2.6261580E+01  -4.7882185E+00   2.8362532E+00
  -2.7180162E+01  -5.1716785E+00   2.4727819E+00
  -2.8126579E+01  -5.6052322E+00   2.0575345E+00
  -2.9097221E+01  -6.0967731E+00   1.5874707E+00
  -3.0086805E+01  -6.6554689E+00   1.0601072E+00
  -3.1088026E+01  -7.2918615E+00   4.7382122E-01
  -3.2091145E+01  -8.0178699E+00  -1.7178689E-01
  -3.3083477E+01  -8.8465862E+00  -8.7551492E-01
  -3.4048840E+01  -9.7917643E+00  -1.6341439E+00
  -3.4966782E+01  -1.0866764E+01  -2.4419363E+00
  -3.5811695E+01  -1.2082742E+01  -3.2898989E+00
  -3.6551933E+01  -1.3445848E+01  -4.1645665E+00
  -3.7149303E+01  -1.4953283E+01  -5.0459900E+00
  -3.7559692E+01  -1.6588270E+01  -5.9046249E+00
  -3.7736134E+01  -1.8314583E+01  -6.6972914E+00
  -3.7635300E+01  -2.0071623E+01  -7.3628745E+00
  -3.7228371E+01  -2.1772099E+01  -7.8194551E+00
  -3.6515289E+01  -2.3304386E+01  -7.9651604E+00
  -3.5539570E+01  -2.4541607E+01  -7.6848273E+00
  -3.4398388E+01  -2.5357483E+01  -6.8630548E+00
  -3.3242302E+01  -2.5646347E+01  -5.4012198E+00
  -1.3867298E+01  -1.1057572E+01  -1.0648742E+00
   1.4947081E-01  -1.0478783E-01   6.2613964E-01
   9.8419189E-02  -8.2933426E-02   6.4794397E-01
   4.4770241E-02  -7.6182365E-02   6.5622711E-01
  -4.7760010E-03  -8.3253860E-02   6.5201426E-01
  -4.5430183E-02  -1.0101318E-01   6.3816690E-01
  -7.4852943E-02  -1.2548923E-01   6.1832118E-01
  -9.2959404E-02  -1.5287590E-01   5.9597945E-01
  -1.0120773E-01  -1.8013859E-01   5.7390702E-01
  -1.0180950E-01  -2.0525217E-01   5.5391192E-01
  -9.7111702E-02  -2.2711086E-01   5.3692895E-01
  -1.0240531E+01  -1.2701471E+00   3.1693277E+00
  -1.0584031E+01  -1.3037412E+00   3.2534292E+00
  -1.0936894E+01  -1.3386009E+00   3.3379354E+00
  -1.1299385E+01  -1.3748683E+00   3.4225330E+00
  -1.1671810E+01  -1.4127080E+00   3.5068681E+00
  -1.2054528E+01  -1.4523107E+00   3.5905409E+00
  -1.2447957E+01  -1.4938951E+00   3.6730998E+00
  -1.2852580E+01  -1.5377111E+00   3.7540343E+00
  -1.3268955E+01  -1.5840452E+00   3.8327672E+00
  -1.3697721E+01  -1.6332216E+00   3.9086459E+00
  -1.4139605E+01  -1.6856095E+00   3.9809301E+00
  -1.4595428E+01  -1.7416253E+00   4.0487828E+00
  -1.5066109E+01  -1.8017406E+00   4.1112566E+00
  -1.5552664E+01  -1.8664870E+00   4.1672812E+00
  -1.6056215E+01  -1.9364634E+00   4.2156472E+00
  -1.6577978E+01  -2.0123453E+00   4.2549973E+00
  -1.7119263E+01  -2.0948946E+00   4.2838097E+00
  -1.7681459E+01  -2.1849732E+00   4.3003888E+00
  -1.8266035E+01  -2.2835560E+00   4.3028541E+00
  -1.8874512E+01  -2.3917508E+00   4.2891345E+00
  -1.9508455E+01  -2.5108223E+00   4.2569623E+00
  -2.0169447E+01  -2.6422188E+00   4.2038732E+00
  -2.0859070E+01  -2.7876115E+00   4.1272016E+00
  -2.1578888E+01  -2.9489336E+00   4.0240860E+00
  -2.2330395E+01  -3.1284397E+00   3.8914630E+00
  -2.3115013E+01  -3.3287694E+00   3.7260616E+00
  -2.3934011E+01  -3.5530314E+00   3.5244005E+00
  -2.4788446E+01  -3.8049006E+00   3.2827759E+00
  -2.5679050E+01  -4.0887375E+00   2.9972568E+00
  -2.6606121E+01  -4.4097347E+00   2.6636965E+00
  -2.7569307E+01  -4.7740822E+00   2.2777553E+00
  -2.8567411E+01  -5.1891727E+00   1.8349705E+00
  -2.9598087E+01  -5.6638203E+00   1.3308564E+00
  -3.0657522E+01  -6.2084961E+00   7.6104236E-01
  -3.1740017E+01  -6.8355556E+00   1.2143462E-01
  -3.2837456E+01  -7.5593629E+00  -5.9160149E-01
  -3.3938591E+01  -8.3962688E+00  -1.3810651E+00
  -3.5028015E+01  -9.3642130E+00  -2.2490702E+00
  -3.6084751E+01  -1.0481765E+01  -3.1964233E+00
  -3.7080376E+01  -1.1766253E+01  -4.2217340E+00
  -3.7976875E+01  -1.3230654E+01  -5.3196330E+00
  -3.8724701E+01  -1.4878876E+01  -6.4775333E+00
  -3.9262264E+01  -1.6699440E+01  -7.6705184E+00
  -3.9518524E+01  -1.8657879E+01  -8.8543348E+00
  -3.9420826E+01  -2.0689240E+01  -9.9575777E+00
  -3.8909527E+01  -2.2693089E+01  -1.0875552E+01
  -3.7959042E+01  -2.4534485E+01  -1.1469603E+01
  -3.6601181E+01  -2.6054157E+01  -1.1575945E+01
  -3.4943153E+01  -2.7089277E+01  -1.1025805E+01
  -3.3170399E+01  -2.7501987E+01  -9.6742134E+00
  -3.1527637E+01  -2.7207729E+01  -7.4287610E+00
  -1.4193103E+01  -1.2394694E+01  -1.6515207E+00
   1.1296940E-01  -4.0613174E-02   7.1369839E-01
   4.2468071E-02  -3.5623550E-02   7.2206640E-01
  -2.0942688E-02  -4.7922134E-02   7.1240187E-01
  -7.0956230E-02  -7.2890282E-02   6.8951368E-01
  -1.0507202E-01  -1.0504436E-01   6.5915704E-01
  -1.2393856E-01  -1.3948631E-01   6.2652266E-01
  -1.3019848E-01  -1.7254162E-01   5.9543496E-01
  -1.2725830E-01  -2.0198488E-01   5.6817484E-01
  -1.1840010E-01  -2.2681904E-01   5.4571199E-01
  -1.0262739E+01  -1.1572330E+00   3.1563981E+00
  -1.0607104E+01  -1.1870446E+00   3.2389548E+00
  -1.0960964E+01  -1.2179811E+00   3.3217998E+00
  -1.1324604E+01  -1.2501693E+00   3.4046183E+00
  -1.1698357E+01  -1.2837566E+00   3.4870548E+00
  -1.2082609E+01  -1.3189132E+00   3.5687089E+00
  -1.2477807E+01  -1.3558346E+00   3.6491275E+00
  -1.2884469E+01  -1.3947456E+00   3.7277989E+00
  -1.3303191E+01  -1.4359020E+00   3.8041453E+00
  -1.3734652E+01  -1.4795957E+00   3.8775110E+00
  -1.4179623E+01  -1.5261583E+00   3.9471545E+00
  -1.4638974E+01  -1.5759655E+00   4.0122342E+00
  -1.5113679E+01  -1.6294427E+00   4.0717978E+00
  -1.5604817E+01  -1.6870711E+00   4.1247668E+00
  -1.6113575E+01  -1.7493948E+00   4.1699238E+00
  -1.6641243E+01  -1.8170292E+00   4.2058964E+00
  -1.7189217E+01  -1.8906714E+00   4.2311449E+00
  -1.7758987E+01  -1.9711128E+00   4.2439494E+00
  -1.8352131E+01  -2.0592544E+00   4.2423973E+00
  -1.8970303E+01  -2.1561255E+00   4.2243738E+00
  -1.9615217E+01  -2.2629085E+00   4.1875548E+00
  -2.0288645E+01  -2.3809674E+00   4.1293983E+00
  -2.0992388E+01  -2.5118871E+00   4.0471392E+00
  -2.1728273E+01  -2.6575174E+00   3.9377799E+00
  -2.2498123E+01  -2.8200347E+00   3.7980788E+00
  -2.3303751E+01  -3.0020103E+00   3.6245291E+00
  -2.4146902E+01  -3.2065034E+00   3.4133382E+00
  -2.5029215E+01  -3.4371710E+00   3.1603930E+00
  -2.5952145E+01  -3.6984048E+00   2.8612301E+00
  -2.6916853E+01  -3.9955018E+00   2.5110023E+00
  -2.7924061E+01  -4.3348708E+00   2.1044536E+00
  -2.8973873E+01  -4.7242870E+00   1.6359137E+00
  -3.0065512E+01  -5.1731825E+00   1.0992910E+00
  -3.1197033E+01  -5.6929827E+00   4.8807341E-01
  -3.2364883E+01  -6.2974577E+00  -2.0470935E-01
  -3.3563282E+01  -7.0030174E+00  -9.8653960E-01
  -3.4783287E+01  -7.8288817E+00  -1.8655233E+00
  -3.6011341E+01  -8.7969074E+00  -2.8504314E+00
  -3.7227119E+01  -9.9308376E+00  -3.9504814E+00
  -3.8400528E+01  -1.1254559E+01  -5.1744461E+00
  -3.9487972E+01  -1.2788874E+01  -6.5283813E+00
  -4.0428474E+01  -1.4546263E+01  -8.0111227E+00
  -4.1141190E+01  -1.6523289E+01  -9.6067524E+00
  -4.1526680E+01  -1.8690769E+01  -1.1273738E+01
  -4.1475407E+01  -2.0983051E+01  -1.2931965E+01
  -4.0886406E+01  -2.3289337E+01  -1.4451082E+01
  -3.9696754E+01  -2.5451733E+01  -1.5646148E+01
  -3.7917347E+01  -2.7275591E+01  -1.6287722E+01
  -3.5663525E+01  -2.8555407E+01  -1.6131229E+01
  -3.3164627E+01  -2.9113457E+01  -1.4962687E+01
  -3.0739790E+01  -2.8840630E+01  -1.2647796E+01
  -2.8740494E+01  -2.7723606E+01  -9.1640224E+00
  -5.1317949E+00  -4.9238930E+00  -2.2669888E-01
   3.5733223E-02   2.1667480E-03   8.0936813E-01
  -4.4282913E-02  -1.6766548E-02   7.9075241E-01
  -1.0466671E-01  -5.0050735E-02   7.5447130E-01
  -1.4302540E-01  -9.0496063E-02   7.0935726E-01
  -1.6135883E-01  -1.3200188E-01   6.6289735E-01
  -1.6401768E-01  -1.7040777E-01   6.2018836E-01
  -1.5598583E-01  -2.0346498E-01   5.8392310E-01
  -1.4169025E-01  -2.3044538E-01   5.5492318E-01
  -1.0277349E+01  -1.0391940E+00   3.1415434E+00
  -1.0622341E+01  -1.0650486E+00   3.2226932E+00
  -1.0976943E+01  -1.0918813E+00   3.3040361E+00
  -1.1341459E+01  -1.1198027E+00   3.3852565E+00
  -1.1716245E+01  -1.1489419E+00   3.4659991E+00
  -1.2101710E+01  -1.1794474E+00   3.5458629E+00
  -1.2498329E+01  -1.2114909E+00   3.6243947E+00
  -1.2906651E+01  -1.2452688E+00   3.7010841E+00
  -1.3327301E+01  -1.2810061E+00   3.7753527E+00
  -1.3761000E+01  -1.3189586E+00   3.8465450E+00
  -1.4208555E+01  -1.3594184E+00   3.9139180E+00
  -1.4670886E+01  -1.4027160E+00   3.9766295E+00
  -1.5149013E+01  -1.4492275E+00   4.0337234E+00
  -1.5644069E+01  -1.4993780E+00   4.0841174E+00
  -1.6157305E+01  -1.5536501E+00   4.1265860E+00
  -1.6690083E+01  -1.6125917E+00   4.1597476E+00
  -1.7243876E+01  -1.6768250E+00   4.1820483E+00
  -1.7820267E+01  -1.7470592E+00   4.1917477E+00
  -1.8420937E+01  -1.8241057E+00   4.1869059E+00
  -1.9047670E+01  -1.9088960E+00   4.1653695E+00
  -1.9702330E+01  -2.0025058E+00   4.1247649E+00
  -2.0386864E+01  -2.1061845E+00   4.0624809E+00
  -2.1103296E+01  -2.2213917E+00   3.9756579E+00
  -2.1853714E+01  -2.3498449E+00   3.8611736E+00
  -2.2640265E+01  -2.4935787E+00   3.7156169E+00
  -2.3465160E+01  -2.6550164E+00   3.5352554E+00
  -2.4330639E+01  -2.8370674E+00   3.3159962E+00
  -2.5238943E+01  -3.0432415E+00   3.0533276E+00
  -2.6192286E+01  -3.2777975E+00   2.7422550E+00
  -2.7192774E+01  -3.5459316E+00   2.3772278E+00
  -2.8242298E+01  -3.8540075E+00   1.9520526E+00
  -2.9342419E+01  -4.2098484E+00   1.4597969E+00
  -3.0494167E+01  -4.6230917E+00   8.9266300E-01
  -3.1697803E+01  -5.1056046E+00   2.4181272E-01
  -3.2952389E+01  -5.6719513E+00  -5.0289822E-01
  -3.4255146E+01  -6.3398571E+00  -1.3533020E+00
  -3.5600334E+01  -7.1305914E+00  -2.3233886E+00
  -3.6977409E+01  -8.0690784E+00  -3.4297945E+00
  -3.8368137E+01  -9.1834583E+00  -4.6919632E+00
  -3.9742382E+01  -1.0503654E+01  -6.1314735E+00
  -4.1052498E+01  -1.2058317E+01  -7.7694879E+00
  -4.2227016E+01  -1.3869401E+01  -9.6211176E+00
  -4.3165199E+01  -1.5943642E+01  -1.1685171E+01
  -4.3735870E+01  -1.8260715E+01  -1.3928570E+01
  -4.3785351E+01  -2.0759109E+01  -1.6266315E+01
  -4.3159676E+01  -2.3322855E+01  -1.8541332E+01
  -4.1744194E+01  -2.5775356E+01  -2.0513083E+01
  -3.9515957E+01  -2.7888285E+01  -2.1866932E+01
  -3.6593239E+01  -2.9411739E+01  -2.2254383E+01
  -3.3257195E+01  -3.0123926E+01  -2.1362717E+01
  -2.9923082E+01  -2.9886768E+01  -1.8994545E+01
  -2.7058447E+01  -2.8684885E+01  -1.5123587E+01
  -2.5074835E+01  -2.6628904E+01  -9.8974695E+00
   2.3271561E-02   2.9211044E-02   9.1986752E-01
  -7.5757027E-02   2.8610229E-03   8.8764286E-01
  -1.4688683E-01  -3.8813591E-02   8.3262253E-01
  -1.8841553E-01  -8.6848259E-02   7.6788521E-01
  -2.0441055E-01  -1.3416004E-01   7.0383310E-01
  -2.0157909E-01  -1.7634821E-01   6.4693475E-01
  -1.8681622E-01  -2.1140862E-01   6.0011292E-01
  -1.6586781E-01  -2.3904562E-01   5.6376117E-01
  -1.0286161E+01  -9.1657454E-01   3.1258097E+00
  -1.0631596E+01  -9.3831831E-01   3.2057097E+00
  -1.0986737E+01  -9.6088725E-01   3.2857263E+00
  -1.1351908E+01  -9.8437548E-01   3.3655448E+00
  -1.1727480E+01  -1.0088924E+00   3.4448092E+00
  -1.2113888E+01  -1.0345644E+00   3.5231202E+00
  -1.2511628E+01  -1.0615371E+00   3.6000257E+00
  -1.2921275E+01  -1.0899779E+00   3.6750162E+00
  -1.3343485E+01  -1.1200778E+00   3.7475138E+00
  -1.3779008E+01  -1.1520555E+00   3.8168643E+00
  -1.4228690E+01  -1.1861595E+00   3.8823252E+00
  -1.4693487E+01  -1.2226727E+00   3.9430542E+00
  -1.5174463E+01  -1.2619166E+00   3.9980938E+00
  -1.5672804E+01  -1.3042562E+00   4.0463591E+00
  -1.6189814E+01  -1.3501060E+00   4.0866194E+00
  -1.6726915E+01  -1.3999381E+00   4.1174865E+00
  -1.7285658E+01  -1.4542906E+00   4.1373940E+00
  -1.7867704E+01  -1.5137783E+00   4.1445866E+00
  -1.8474840E+01  -1.5791080E+00   4.1371002E+00
  -1.9108957E+01  -1.6510938E+00   4.1127510E+00
  -1.9772064E+01  -1.7306809E+00   4.0691190E+00
  -2.0466274E+01  -1.8189723E+00   4.0035319E+00
  -2.1193817E+01  -1.9172641E+00   3.9130478E+00
  -2.1957031E+01  -2.0270901E+00   3.7944288E+00
  -2.2758373E+01  -2.1502786E+00   3.6441104E+00
  -2.3600443E+01  -2.2890222E+00   3.4581518E+00
  -2.4485954E+01  -2.4459724E+00   3.2321787E+00
  -2.5417763E+01  -2.6243541E+00   2.9613044E+00
  -2.6398832E+01  -2.8281140E+00   2.6400285E+00
  -2.7432224E+01  -3.0621119E+00   2.2621210E+00
  -2.8521042E+01  -3.3323631E+00   1.8204679E+00
  -2.9668381E+01  -3.6463480E+00   1.3068807E+00
  -3.0877205E+01  -4.0133967E+00   7.1183765E-01
  -3.2150185E+01  -4.4451599E+00   2.4107473E-02
  -3.3489334E+01  -4.9561558E+00  -7.6977837E-01
  -3.4895386E+01  -5.5643740E+00  -1.6862758E+00
  -3.6366554E+01  -6.2918468E+00  -2.7457762E+00
  -3.7896393E+01  -7.1650448E+00  -3.9736421E+00
  -3.9470215E+01  -8.2147980E+00  -5.4009809E+00
  -4.1059727E+01  -9.4753361E+00  -7.0644608E+00
  -4.2615356E+01  -1.0981653E+01  -9.0038080E+00
  -4.4057079E+01  -1.2764353E+01  -1.1255309E+01
  -4.5265186E+01  -1.4840826E+01  -1.3838882E+01
  -4.6075340E+01  -1.7202129E+01  -1.6737103E+01
  -4.6284111E+01  -1.9795879E+01  -1.9866238E+01
  -4.5673866E+01  -2.2508516E+01  -2.3044239E+01
  -4.4063126E+01  -2.5153988E+01  -2.5967953E+01
  -4.1379581E+01  -2.7479374E+01  -2.8218285E+01
  -3.7735722E+01  -2.9197330E+01  -2.9312113E+01
  -3.3469707E+01  -3.0045574E+01  -2.8803282E+01
  -2.9113861E+01  -2.9857580E+01  -2.6405603E+01
  -2.5281954E+01  -2.8614231E+01  -2.2083595E+01
  -2.2513672E+01  -2.6449921E+01  -1.6061775E+01
  -2.1144062E+01  -2.3608316E+01  -8.7428255E+00
  -1.1501122E-01   1.2741089E-03   9.9976540E-01
  -1.9634438E-01  -4.6902657E-02   9.2037201E-01
  -2.3930931E-01  -9.9798203E-02   8.3134651E-01
  -2.5085831E-01  -1.4984798E-01   7.4643373E-01
  -2.4063110E-01  -1.9281816E-01   6.7341471E-01
  -2.1775436E-01  -2.2722244E-01   6.1510563E-01
  -1.8926811E-01  -2.5333738E-01   5.7111704E-01
  -1.0290840E+01  -7.9002237E-01   3.1105242E+00
  -1.0636574E+01  -8.0752248E-01   3.1893559E+00
  -1.0992095E+01  -8.2568967E-01   3.2682452E+00
  -1.1357740E+01  -8.4460056E-01   3.3468771E+00
  -1.1733899E+01  -8.6434394E-01   3.4248979E+00
  -1.2121020E+01  -8.8502288E-01   3.5019085E+00
  -1.2519623E+01  -9.0675592E-01   3.5774589E+00
  -1.2930302E+01  -9.2967933E-01   3.6510403E+00
  -1.3353739E+01  -9.5394909E-01   3.7220771E+00
  -1.3790709E+01  -9.7974360E-01   3.7899158E+00
  -1.4242090E+01  -1.0072659E+00   3.8538160E+00
  -1.4708869E+01  -1.0367475E+00   3.9129350E+00
  -1.5192151E+01  -1.0684518E+00   3.9663155E+00
  -1.5693160E+01  -1.1026779E+00   4.0128703E+00
  -1.6213249E+01  -1.1397674E+00   4.0513673E+00
  -1.6753897E+01  -1.1801088E+00   4.0804114E+00
  -1.7316713E+01  -1.2241467E+00   4.0984287E+00
  -1.7903437E+01  -1.2723906E+00   4.1036496E+00
  -1.8515934E+01  -1.3254274E+00   4.0940924E+00
  -1.9156204E+01  -1.3839366E+00   4.0675459E+00
  -1.9826376E+01  -1.4487094E+00   4.0215521E+00
  -2.0528713E+01  -1.5206726E+00   3.9533873E+00
  -2.1265629E+01  -1.6009208E+00   3.8600368E+00
  -2.2039690E+01  -1.6907554E+00   3.7381635E+00
  -2.2853634E+01  -1.7917358E+00   3.5840671E+00
  -2.3710415E+01  -1.9057417E+00   3.3936231E+00
  -2.4613190E+01  -2.0350599E+00   3.1622083E+00
  -2.5565374E+01  -2.1824906E+00   2.8845968E+00
  -2.6570644E+01  -2.3514831E+00   2.5548322E+00
  -2.7632977E+01  -2.5463192E+00   2.1660597E+00
  -2.8756641E+01  -2.7723436E+00   1.7103132E+00
  -2.9946230E+01  -3.0362632E+00   1.1782249E+00
  -3.1206636E+01  -3.3465309E+00   5.5862898E-01