# vtk DataFile Version 3.0
SM polar seed points transformed to GSW coordinates
ASCII
DATASET POLYDATA
POINTS      288 float
       1.050472       0.000000       1.070751
       1.025725       0.194114       1.077129
       0.953171       0.375000       1.095829
       0.837754       0.530330       1.125575
       0.687339       0.649519       1.164341
       0.512177       0.724444       1.209486
       0.324205       0.750000       1.257931
       0.136234       0.724444       1.306377
      -0.038928       0.649519       1.351521
      -0.189343       0.530330       1.390288
      -0.304760       0.375000       1.420034
      -0.377315       0.194114       1.438733
      -0.402062      -0.000000       1.445111
      -0.377315      -0.194114       1.438733
      -0.304760      -0.375000       1.420034
      -0.189343      -0.530330       1.390288
      -0.038928      -0.649519       1.351521
       0.136234      -0.724444       1.306377
       0.324205      -0.750000       1.257931
       0.512177      -0.724444       1.209486
       0.687339      -0.649519       1.164341
       0.837753      -0.530330       1.125575
       0.953171      -0.375000       1.095829
       1.025725      -0.194114       1.077129
       0.953153       0.000000       1.158231
       0.932236       0.164072       1.163622
       0.870910       0.316964       1.179428
       0.773355       0.448254       1.204570
       0.646219       0.548997       1.237337
       0.498166       0.612327       1.275495
       0.339285       0.633927       1.316443
       0.180405       0.612327       1.357391
       0.032352       0.548997       1.395548
      -0.094784       0.448254       1.428315
      -0.192339       0.316964       1.453458
      -0.253665       0.164073       1.469263
      -0.274582      -0.000000       1.474654
      -0.253665      -0.164073       1.469263
      -0.192339      -0.316964       1.453458
      -0.094784      -0.448254       1.428315
       0.032352      -0.548997       1.395548
       0.180405      -0.612327       1.357391
       0.339285      -0.633927       1.316443
       0.498166      -0.612327       1.275495
       0.646219      -0.548997       1.237337
       0.773355      -0.448254       1.204570
       0.870910      -0.316964       1.179428
       0.932236      -0.164073       1.163622
       0.848579       0.000000       1.236897
       0.831651       0.132782       1.241260
       0.782021       0.256515       1.254051
       0.703071       0.362767       1.274398
       0.600181       0.444297       1.300916
       0.480364       0.495549       1.331797
       0.351783       0.513030       1.364935
       0.223203       0.495549       1.398074
       0.103385       0.444297       1.428955
       0.000496       0.362767       1.455472
      -0.078454       0.256515       1.475820
      -0.128085       0.132782       1.488611
      -0.145012      -0.000000       1.492974
      -0.128085      -0.132782       1.488611
      -0.078454      -0.256515       1.475820
       0.000496      -0.362767       1.455472
       0.103386      -0.444297       1.428955
       0.223203      -0.495549       1.398074
       0.351783      -0.513030       1.364935
       0.480364      -0.495549       1.331797
       0.600181      -0.444297       1.300916
       0.703071      -0.362767       1.274398
       0.782021      -0.256515       1.254051
       0.831651      -0.132782       1.241260
       0.737548       0.000000       1.306149
       0.724738       0.100481       1.309450
       0.687181       0.194114       1.319129
       0.627436       0.274519       1.334527
       0.549576       0.336216       1.354594
       0.458905       0.375000       1.377963
       0.361604       0.388229       1.403040
       0.264303       0.375000       1.428117
       0.173632       0.336216       1.451486
       0.095772       0.274519       1.471553
       0.036027       0.194114       1.486951
      -0.001529       0.100481       1.496630
      -0.014339      -0.000000       1.499931
      -0.001529      -0.100481       1.496630
       0.036027      -0.194114       1.486951
       0.095772      -0.274519       1.471553
       0.173632      -0.336216       1.451486
       0.264303      -0.375000       1.428117
       0.361604      -0.388229       1.403040
       0.458905      -0.375000       1.377963
       0.549576      -0.336216       1.354594
       0.627436      -0.274519       1.334527
       0.687181      -0.194114       1.319129
       0.724738      -0.100481       1.309450
       0.620903       0.000000       1.365460
       0.612308       0.067415       1.367675
       0.587110       0.130236       1.374169
       0.547026       0.184182       1.384500
       0.494788       0.225576       1.397963
       0.433955       0.251597       1.413642
       0.368673       0.260472       1.430467
       0.303391       0.251597       1.447292
       0.242558       0.225576       1.462970
       0.190319       0.184182       1.476433
       0.150235       0.130236       1.486764
       0.125037       0.067415       1.493258
       0.116443      -0.000000       1.495474
       0.125037      -0.067415       1.493258
       0.150235      -0.130236       1.486764
       0.190319      -0.184182       1.476433
       0.242558      -0.225576       1.462970
       0.303391      -0.251597       1.447292
       0.368673      -0.260472       1.430467
       0.433955      -0.251597       1.413642
       0.494788      -0.225576       1.397963
       0.547026      -0.184182       1.384500
       0.587110      -0.130236       1.374169
       0.612308      -0.067415       1.367675
       0.499532       0.000000       1.414379
       0.495219       0.033836       1.415491
       0.482571       0.065367       1.418750
       0.462453       0.092443       1.423935
       0.436234       0.113219       1.430693
       0.405701       0.126279       1.438562
       0.372935       0.130734       1.447006
       0.340170       0.126279       1.455451
       0.309637       0.113219       1.463320
       0.283418       0.092443       1.470078
       0.263299       0.065367       1.475263
       0.250652       0.033836       1.478522
       0.246339      -0.000000       1.479634
       0.250652      -0.033836       1.478522
       0.263299      -0.065367       1.475263
       0.283418      -0.092443       1.470078
       0.309637      -0.113219       1.463320
       0.340170      -0.126279       1.455451
       0.372936      -0.130734       1.447006
       0.405701      -0.126279       1.438562
       0.436234      -0.113219       1.430693
       0.462453      -0.092443       1.423935
       0.482571      -0.065367       1.418750
       0.495219      -0.033836       1.415491
       0.402062       0.000000      -1.445111
       0.377315       0.194114      -1.438733
       0.304760       0.375000      -1.420034
       0.189343       0.530330      -1.390288
       0.038928       0.649519      -1.351521
      -0.136234       0.724444      -1.306377
      -0.324205       0.750000      -1.257931
      -0.512177       0.724444      -1.209486
      -0.687339       0.649519      -1.164341
      -0.837754       0.530330      -1.125575
      -0.953171       0.375000      -1.095829
      -1.025725       0.194114      -1.077129
      -1.050472      -0.000000      -1.070751
      -1.025725      -0.194114      -1.077129
      -0.953171      -0.375000      -1.095829
      -0.837754      -0.530330      -1.125575
      -0.687339      -0.649519      -1.164341
      -0.512177      -0.724444      -1.209486
      -0.324205      -0.750000      -1.257931
      -0.136234      -0.724444      -1.306377
       0.038928      -0.649519      -1.351521
       0.189343      -0.530330      -1.390288
       0.304760      -0.375000      -1.420034
       0.377315      -0.194114      -1.438733
       0.274582       0.000000      -1.474654
       0.253665       0.164072      -1.469263
       0.192339       0.316964      -1.453458
       0.094784       0.448254      -1.428315
      -0.032352       0.548997      -1.395548
      -0.180405       0.612327      -1.357391
      -0.339285       0.633927      -1.316443
      -0.498166       0.612327      -1.275495
      -0.646219       0.548997      -1.237337
      -0.773355       0.448254      -1.204570
      -0.870910       0.316964      -1.179428
      -0.932236       0.164073      -1.163622
      -0.953153      -0.000000      -1.158231
      -0.932236      -0.164073      -1.163622
      -0.870910      -0.316964      -1.179428
      -0.773355      -0.448254      -1.204570
      -0.646219      -0.548997      -1.237337
      -0.498166      -0.612327      -1.275495
      -0.339285      -0.633927      -1.316443
      -0.180405      -0.612327      -1.357391
      -0.032352      -0.548997      -1.395548
       0.094784      -0.448254      -1.428315
       0.192339      -0.316964      -1.453458
       0.253665      -0.164073      -1.469263
       0.145012       0.000000      -1.492974
       0.128085       0.132782      -1.488611
       0.078454       0.256515      -1.475820
      -0.000496       0.362767      -1.455472
      -0.103385       0.444297      -1.428955
      -0.223203       0.495549      -1.398074
      -0.351783       0.513030      -1.364935
      -0.480364       0.495549      -1.331797
      -0.600181       0.444297      -1.300916
      -0.703071       0.362767      -1.274398
      -0.782021       0.256515      -1.254051
      -0.831651       0.132782      -1.241260
      -0.848579      -0.000000      -1.236897
      -0.831651      -0.132782      -1.241260
      -0.782021      -0.256515      -1.254051
      -0.703071      -0.362767      -1.274398
      -0.600181      -0.444297      -1.300916
      -0.480364      -0.495549      -1.331797
      -0.351783      -0.513030      -1.364935
      -0.223203      -0.495549      -1.398074
      -0.103385      -0.444297      -1.428955
      -0.000496      -0.362767      -1.455472
       0.078454      -0.256515      -1.475820
       0.128085      -0.132782      -1.488611
       0.014339       0.000000      -1.499931
       0.001529       0.100481      -1.496630
      -0.036027       0.194114      -1.486951
      -0.095772       0.274519      -1.471553
      -0.173632       0.336216      -1.451486
      -0.264303       0.375000      -1.428117
      -0.361604       0.388229      -1.403040
      -0.458905       0.375000      -1.377963
      -0.549576       0.336216      -1.354594
      -0.627436       0.274519      -1.334527
      -0.687181       0.194114      -1.319129
      -0.724738       0.100481      -1.309450
      -0.737548      -0.000000      -1.306149
      -0.724738      -0.100481      -1.309450
      -0.687181      -0.194114      -1.319129
      -0.627436      -0.274519      -1.334527
      -0.549576      -0.336216      -1.354594
      -0.458905      -0.375000      -1.377963
      -0.361604      -0.388229      -1.403040
      -0.264303      -0.375000      -1.428117
      -0.173632      -0.336216      -1.451486
      -0.095772      -0.274519      -1.471553
      -0.036028      -0.194114      -1.486951
       0.001529      -0.100481      -1.496630
      -0.116443       0.000000      -1.495474
      -0.125037       0.067415      -1.493258
      -0.150235       0.130236      -1.486764
      -0.190319       0.184182      -1.476433
      -0.242558       0.225576      -1.462970
      -0.303391       0.251597      -1.447292
      -0.368673       0.260472      -1.430467
      -0.433955       0.251597      -1.413642
      -0.494788       0.225576      -1.397963
      -0.547026       0.184182      -1.384500
      -0.587110       0.130236      -1.374169
      -0.612308       0.067415      -1.367675
      -0.620903      -0.000000      -1.365460
      -0.612308      -0.067415      -1.367675
      -0.587110      -0.130236      -1.374169
      -0.547026      -0.184182      -1.384500
      -0.494788      -0.225576      -1.397963
      -0.433955      -0.251597      -1.413642
      -0.368673      -0.260472      -1.430467
      -0.303391      -0.251597      -1.447292
      -0.242558      -0.225576      -1.462970
      -0.190319      -0.184182      -1.476433
      -0.150235      -0.130236      -1.486764
      -0.125037      -0.067415      -1.493258
      -0.246339       0.000000      -1.479634
      -0.250652       0.033836      -1.478522
      -0.263299       0.065367      -1.475263
      -0.283418       0.092443      -1.470078
      -0.309637       0.113219      -1.463320
      -0.340170       0.126279      -1.455451
      -0.372936       0.130734      -1.447006
      -0.405701       0.126279      -1.438562
      -0.436234       0.113219      -1.430693
      -0.462453       0.092443      -1.423935
      -0.482571       0.065367      -1.418750
      -0.495219       0.033836      -1.415491
      -0.499532      -0.000000      -1.414379
      -0.495219      -0.033836      -1.415491
      -0.482571      -0.065367      -1.418750
      -0.462453      -0.092443      -1.423935
      -0.436234      -0.113219      -1.430693
      -0.405701      -0.126279      -1.438562
      -0.372935      -0.130734      -1.447006
      -0.340170      -0.126279      -1.455451
      -0.309637      -0.113219      -1.463320
      -0.283418      -0.092443      -1.470078
      -0.263299      -0.065367      -1.475263
      -0.250652      -0.033836      -1.478522
VERTICES      288     576
 1        0
 1        1
 1        2
 1        3
 1        4
 1        5
 1        6
 1        7
 1        8
 1        9
 1       10
 1       11
 1       12
 1       13
 1       14
 1       15
 1       16
 1       17
 1       18
 1       19
 1       20
 1       21
 1       22
 1       23
 1       24
 1       25
 1       26
 1       27
 1       28
 1       29
 1       30
 1       31
 1       32
 1       33
 1       34
 1       35
 1       36
 1       37
 1       38
 1       39
 1       40
 1       41
 1       42
 1       43
 1       44
 1       45
 1       46
 1       47
 1       48
 1       49
 1       50
 1       51
 1       52
 1       53
 1       54
 1       55
 1       56
 1       57
 1       58
 1       59
 1       60
 1       61
 1       62
 1       63
 1       64
 1       65
 1       66
 1       67
 1       68
 1       69
 1       70
 1       71
 1       72
 1       73
 1       74
 1       75
 1       76
 1       77
 1       78
 1       79
 1       80
 1       81
 1       82
 1       83
 1       84
 1       85
 1       86
 1       87
 1       88
 1       89
 1       90
 1       91
 1       92
 1       93
 1       94
 1       95
 1       96
 1       97
 1       98
 1       99
 1      100
 1      101
 1      102
 1      103
 1      104
 1      105
 1      106
 1      107
 1      108
 1      109
 1      110
 1      111
 1      112
 1      113
 1      114
 1      115
 1      116
 1      117
 1      118
 1      119
 1      120
 1      121
 1      122
 1      123
 1      124
 1      125
 1      126
 1      127
 1      128
 1      129
 1      130
 1      131
 1      132
 1      133
 1      134
 1      135
 1      136
 1      137
 1      138
 1      139
 1      140
 1      141
 1      142
 1      143
 1      144
 1      145
 1      146
 1      147
 1      148
 1      149
 1      150
 1      151
 1      152
 1      153
 1      154
 1      155
 1      156
 1      157
 1      158
 1      159
 1      160
 1      161
 1      162
 1      163
 1      164
 1      165
 1      166
 1      167
 1      168
 1      169
 1      170
 1      171
 1      172
 1      173
 1      174
 1      175
 1      176
 1      177
 1      178
 1      179
 1      180
 1      181
 1      182
 1      183
 1      184
 1      185
 1      186
 1      187
 1      188
 1      189
 1      190
 1      191
 1      192
 1      193
 1      194
 1      195
 1      196
 1      197
 1      198
 1      199
 1      200
 1      201
 1      202
 1      203
 1      204
 1      205
 1      206
 1      207
 1      208
 1      209
 1      210
 1      211
 1      212
 1      213
 1      214
 1      215
 1      216
 1      217
 1      218
 1      219
 1      220
 1      221
 1      222
 1      223
 1      224
 1      225
 1      226
 1      227
 1      228
 1      229
 1      230
 1      231
 1      232
 1      233
 1      234
 1      235
 1      236
 1      237
 1      238
 1      239
 1      240
 1      241
 1      242
 1      243
 1      244
 1      245
 1      246
 1      247
 1      248
 1      249
 1      250
 1      251
 1      252
 1      253
 1      254
 1      255
 1      256
 1      257
 1      258
 1      259
 1      260
 1      261
 1      262
 1      263
 1      264
 1      265
 1      266
 1      267
 1      268
 1      269
 1      270
 1      271
 1      272
 1      273
 1      274
 1      275
 1      276
 1      277
 1      278
 1      279
 1      280
 1      281
 1      282
 1      283
 1      284
 1      285
 1      286
 1      287
POINT_DATA      288
SCALARS hemisphere int 1
LOOKUP_TABLE default
 1
 1
 1
 1
 1
 1
 1
 1
 1
 1
 1
 1
 1
 1
 1
 1
 1
 1
 1
 1
 1
 1
 1
 1
 1
 1
 1
 1
 1
 1
 1
 1
 1
 1
 1
 1
 1
 1
 1
 1
 1
 1
 1
 1
 1
 1
 1
 1
 1
 1
 1
 1
 1
 1
 1
 1
 1
 1
 1
 1
 1
 1
 1
 1
 1
 1
 1
 1
 1
 1
 1
 1
 1
 1
 1
 1
 1
 1
 1
 1
 1
 1
 1
 1
 1
 1
 1
 1
 1
 1
 1
 1
 1
 1
 1
 1
 1
 1
 1
 1
 1
 1
 1
 1
 1
 1
 1
 1
 1
 1
 1
 1
 1
 1
 1
 1
 1
 1
 1
 1
 1
 1
 1
 1
 1
 1
 1
 1
 1
 1
 1
 1
 1
 1
 1
 1
 1
 1
 1
 1
 1
 1
 1
 1
-1
-1
-1
-1
-1
-1
-1
-1
-1
-1
-1
-1
-1
-1
-1
-1
-1
-1
-1
-1
-1
-1
-1
-1
-1
-1
-1
-1
-1
-1
-1
-1
-1
-1
-1
-1
-1
-1
-1
-1
-1
-1
-1
-1
-1
-1
-1
-1
-1
-1
-1
-1
-1
-1
-1
-1
-1
-1
-1
-1
-1
-1
-1
-1
-1
-1
-1
-1
-1
-1
-1
-1
-1
-1
-1
-1
-1
-1
-1
-1
-1
-1
-1
-1
-1
-1
-1
-1
-1
-1
-1
-1
-1
-1
-1
-1
-1
-1
-1
-1
-1
-1
-1
-1
-1
-1
-1
-1
-1
-1
-1
-1
-1
-1
-1
-1
-1
-1
-1
-1
-1
-1
-1
-1
-1
-1
-1
-1
-1
-1
-1
-1
-1
-1
-1
-1
-1
-1
-1
-1
-1
-1
-1
-1
