# vtk DataFile Version 3.0
T01 + IGRF magnetic field in GSW coordinates
ASCII
DATASET STRUCTURED_GRID
DIMENSIONS     61    21    21
POINTS    26901 float
     -50.000000     -10.000000     -10.000000
     -49.000000     -10.000000     -10.000000
     -48.000000     -10.000000     -10.000000
     -47.000000     -10.000000     -10.000000
     -46.000000     -10.000000     -10.000000
     -45.000000     -10.000000     -10.000000
     -44.000000     -10.000000     -10.000000
     -43.000000     -10.000000     -10.000000
     -42.000000     -10.000000     -10.000000
     -41.000000     -10.000000     -10.000000
     -40.000000     -10.000000     -10.000000
     -39.000000     -10.000000     -10.000000
     -38.000000     -10.000000     -10.000000
     -37.000000     -10.000000     -10.000000
     -36.000000     -10.000000     -10.000000
     -35.000000     -10.000000     -10.000000
     -34.000000     -10.000000     -10.000000
     -33.000000     -10.000000     -10.000000
     -32.000000     -10.000000     -10.000000
     -31.000000     -10.000000     -10.000000
     -30.000000     -10.000000     -10.000000
     -29.000000     -10.000000     -10.000000
     -28.000000     -10.000000     -10.000000
     -27.000000     -10.000000     -10.000000
     -26.000000     -10.000000     -10.000000
     -25.000000     -10.000000     -10.000000
     -24.000000     -10.000000     -10.000000
     -23.000000     -10.000000     -10.000000
     -22.000000     -10.000000     -10.000000
     -21.000000     -10.000000     -10.000000
     -20.000000     -10.000000     -10.000000
     -19.000000     -10.000000     -10.000000
     -18.000000     -10.000000     -10.000000
     -17.000000     -10.000000     -10.000000
     -16.000000     -10.000000     -10.000000
     -15.000000     -10.000000     -10.000000
     -14.000000     -10.000000     -10.000000
     -13.000000     -10.000000     -10.000000
     -12.000000     -10.000000     -10.000000
     -11.000000     -10.000000     -10.000000
     -10.000000     -10.000000     -10.000000
      -9.000000     -10.000000     -10.000000
      -8.000000     -10.000000     -10.000000
      -7.000000     -10.000000     -10.000000
      -6.000000     -10.000000     -10.000000
      -5.000000     -10.000000     -10.000000
      -4.000000     -10.000000     -10.000000
      -3.000000     -10.000000     -10.000000
      -2.000000     -10.000000     -10.000000
      -1.000000     -10.000000     -10.000000
       0.000000     -10.000000     -10.000000
       1.000000     -10.000000     -10.000000
       2.000000     -10.000000     -10.000000
       3.000000     -10.000000     -10.000000
       4.000000     -10.000000     -10.000000
       5.000000     -10.000000     -10.000000
       6.000000     -10.000000     -10.000000
       7.000000     -10.000000     -10.000000
       8.000000     -10.000000     -10.000000
       9.000000     -10.000000     -10.000000
      10.000000     -10.000000     -10.000000
     -50.000000      -9.000000     -10.000000
     -49.000000      -9.000000     -10.000000
     -48.000000      -9.000000     -10.000000
     -47.000000      -9.000000     -10.000000
     -46.000000      -9.000000     -10.000000
     -45.000000      -9.000000     -10.000000
     -44.000000      -9.000000     -10.000000
     -43.000000      -9.000000     -10.000000
     -42.000000      -9.000000     -10.000000
     -41.000000      -9.000000     -10.000000
     -40.000000      -9.000000     -10.000000
     -39.000000      -9.000000     -10.000000
     -38.000000      -9.000000     -10.000000
     -37.000000      -9.000000     -10.000000
     -36.000000      -9.000000     -10.000000
     -35.000000      -9.000000     -10.000000
     -34.000000      -9.000000     -10.000000
     -33.000000      -9.000000     -10.000000
     -32.000000      -9.000000     -10.000000
     -31.000000      -9.000000     -10.000000
     -30.000000      -9.000000     -10.000000
     -29.000000      -9.000000     -10.000000
     -28.000000      -9.000000     -10.000000
     -27.000000      -9.000000     -10.000000
     -26.000000      -9.000000     -10.000000
     -25.000000      -9.000000     -10.000000
     -24.000000      -9.000000     -10.000000
     -23.000000      -9.000000     -10.000000
     -22.000000      -9.000000     -10.000000
     -21.000000      -9.000000     -10.000000
     -20.000000      -9.000000     -10.000000
     -19.000000      -9.000000     -10.000000
     -18.000000      -9.000000     -10.000000
     -17.000000      -9.000000     -10.000000
     -16.000000      -9.000000     -10.000000
     -15.000000      -9.000000     -10.000000
     -14.000000      -9.000000     -10.000000
     -13.000000      -9.000000     -10.000000
     -12.000000      -9.000000     -10.000000
     -11.000000      -9.000000     -10.000000
     -10.000000      -9.000000     -10.000000
      -9.000000      -9.000000     -10.000000
      -8.000000      -9.000000     -10.000000
      -7.000000      -9.000000     -10.000000
      -6.000000      -9.000000     -10.000000
      -5.000000      -9.000000     -10.000000
      -4.000000      -9.000000     -10.000000
      -3.000000      -9.000000     -10.000000
      -2.000000      -9.000000     -10.000000
      -1.000000      -9.000000     -10.000000
       0.000000      -9.000000     -10.000000
       1.000000      -9.000000     -10.000000
       2.000000      -9.000000     -10.000000
       3.000000      -9.000000     -10.000000
       4.000000      -9.000000     -10.000000
       5.000000      -9.000000     -10.000000
       6.000000      -9.000000     -10.000000
       7.000000      -9.000000     -10.000000
       8.000000      -9.000000     -10.000000
       9.000000      -9.000000     -10.000000
      10.000000      -9.000000     -10.000000
     -50.000000      -8.000000     -10.000000
     -49.000000      -8.000000     -10.000000
     -48.000000      -8.000000     -10.000000
     -47.000000      -8.000000     -10.000000
     -46.000000      -8.000000     -10.000000
     -45.000000      -8.000000     -10.000000
     -44.000000      -8.000000     -10.000000
     -43.000000      -8.000000     -10.000000
     -42.000000      -8.000000     -10.000000
     -41.000000      -8.000000     -10.000000
     -40.000000      -8.000000     -10.000000
     -39.000000      -8.000000     -10.000000
     -38.000000      -8.000000     -10.000000
     -37.000000      -8.000000     -10.000000
     -36.000000      -8.000000     -10.000000
     -35.000000      -8.000000     -10.000000
     -34.000000      -8.000000     -10.000000
     -33.000000      -8.000000     -10.000000
     -32.000000      -8.000000     -10.000000
     -31.000000      -8.000000     -10.000000
     -30.000000      -8.000000     -10.000000
     -29.000000      -8.000000     -10.000000
     -28.000000      -8.000000     -10.000000
     -27.000000      -8.000000     -10.000000
     -26.000000      -8.000000     -10.000000
     -25.000000      -8.000000     -10.000000
     -24.000000      -8.000000     -10.000000
     -23.000000      -8.000000     -10.000000
     -22.000000      -8.000000     -10.000000
     -21.000000      -8.000000     -10.000000
     -20.000000      -8.000000     -10.000000
     -19.000000      -8.000000     -10.000000
     -18.000000      -8.000000     -10.000000
     -17.000000      -8.000000     -10.000000
     -16.000000      -8.000000     -10.000000
     -15.000000      -8.000000     -10.000000
     -14.000000      -8.000000     -10.000000
     -13.000000      -8.000000     -10.000000
     -12.000000      -8.000000     -10.000000
     -11.000000      -8.000000     -10.000000
     -10.000000      -8.000000     -10.000000
      -9.000000      -8.000000     -10.000000
      -8.000000      -8.000000     -10.000000
      -7.000000      -8.000000     -10.000000
      -6.000000      -8.000000     -10.000000
      -5.000000      -8.000000     -10.000000
      -4.000000      -8.000000     -10.000000
      -3.000000      -8.000000     -10.000000
      -2.000000      -8.000000     -10.000000
      -1.000000      -8.000000     -10.000000
       0.000000      -8.000000     -10.000000
       1.000000      -8.000000     -10.000000
       2.000000      -8.000000     -10.000000
       3.000000      -8.000000     -10.000000
       4.000000      -8.000000     -10.000000
       5.000000      -8.000000     -10.000000
       6.000000      -8.000000     -10.000000
       7.000000      -8.000000     -10.000000
       8.000000      -8.000000     -10.000000
       9.000000      -8.000000     -10.000000
      10.000000      -8.000000     -10.000000
     -50.000000      -7.000000     -10.000000
     -49.000000      -7.000000     -10.000000
     -48.000000      -7.000000     -10.000000
     -47.000000      -7.000000     -10.000000
     -46.000000      -7.000000     -10.000000
     -45.000000      -7.000000     -10.000000
     -44.000000      -7.000000     -10.000000
     -43.000000      -7.000000     -10.000000
     -42.000000      -7.000000     -10.000000
     -41.000000      -7.000000     -10.000000
     -40.000000      -7.000000     -10.000000
     -39.000000      -7.000000     -10.000000
     -38.000000      -7.000000     -10.000000
     -37.000000      -7.000000     -10.000000
     -36.000000      -7.000000     -10.000000
     -35.000000      -7.000000     -10.000000
     -34.000000      -7.000000     -10.000000
     -33.000000      -7.000000     -10.000000
     -32.000000      -7.000000     -10.000000
     -31.000000      -7.000000     -10.000000
     -30.000000      -7.000000     -10.000000
     -29.000000      -7.000000     -10.000000
     -28.000000      -7.000000     -10.000000
     -27.000000      -7.000000     -10.000000
     -26.000000      -7.000000     -10.000000
     -25.000000      -7.000000     -10.000000
[...]
POINT_DATA    26901
VECTORS B_total float
  -1.0003111E+01  -1.4337845E+00   3.2031846E+00
  -1.0340147E+01  -1.4731188E+00   3.2902594E+00
  -1.0686307E+01  -1.5139967E+00   3.3780129E+00
  -1.1041820E+01  -1.5565933E+00   3.4661500E+00
  -1.1406949E+01  -1.6011105E+00   3.5543375E+00
  -1.1782008E+01  -1.6477805E+00   3.6421990E+00
  -1.2167359E+01  -1.6968702E+00   3.7293077E+00
  -1.2563429E+01  -1.7486833E+00   3.8151824E+00
  -1.2970709E+01  -1.8035654E+00   3.8992786E+00
  -1.3389762E+01  -1.8619084E+00   3.9809797E+00
  -1.3821235E+01  -1.9241552E+00   4.0595884E+00
  -1.4265858E+01  -1.9908044E+00   4.1343155E+00
  -1.4724448E+01  -2.0624173E+00   4.2042685E+00
  -1.5197916E+01  -2.1396234E+00   4.2684383E+00
  -1.5687258E+01  -2.2231269E+00   4.3256893E+00
  -1.6193554E+01  -2.3137174E+00   4.3747435E+00
  -1.6717962E+01  -2.4122758E+00   4.4141736E+00
  -1.7261702E+01  -2.5197880E+00   4.4423900E+00
  -1.7826042E+01  -2.6373572E+00   4.4576359E+00
  -1.8412283E+01  -2.7662187E+00   4.4579840E+00
  -1.9021715E+01  -2.9077599E+00   4.4413381E+00
  -1.9655611E+01  -3.0635414E+00   4.4054360E+00
  -2.0315187E+01  -3.2353282E+00   4.3478632E+00
  -2.1001556E+01  -3.4251201E+00   4.2660637E+00
  -2.1715691E+01  -3.6351943E+00   4.1573558E+00
  -2.2458366E+01  -3.8681512E+00   4.0189557E+00
  -2.3230114E+01  -4.1269770E+00   3.8479853E+00
  -2.4031092E+01  -4.4150953E+00   3.6415095E+00
  -2.4860977E+01  -4.7364492E+00   3.3965671E+00
  -2.5718824E+01  -5.0955710E+00   3.1102281E+00
  -2.6602823E+01  -5.4976711E+00   2.7796924E+00
  -2.7510075E+01  -5.9487147E+00   2.4024458E+00
  -2.8436281E+01  -6.4554968E+00   1.9764904E+00
  -2.9375450E+01  -7.0256968E+00   1.5006596E+00
  -3.0319584E+01  -7.6678758E+00   9.7502303E-01
  -3.1258390E+01  -8.3913822E+00   4.0134579E-01
  -3.2179039E+01  -9.2060833E+00  -2.1642132E-01
  -3.3065945E+01  -1.0121818E+01  -8.7164551E-01
  -3.3900600E+01  -1.1147429E+01  -1.5545481E+00
  -3.4661415E+01  -1.2289213E+01  -2.2517159E+00
  -3.5323738E+01  -1.3548637E+01  -2.9454970E+00
  -3.5860191E+01  -1.4919289E+01  -3.6130769E+00
  -3.6241783E+01  -1.6383169E+01  -4.2250700E+00
  -3.6440613E+01  -1.7906898E+01  -4.7436252E+00
  -3.6434639E+01  -1.9438646E+01  -5.1204462E+00
  -3.6215073E+01  -2.0907215E+01  -5.2956505E+00
  -3.5795582E+01  -2.2224556E+01  -5.1987376E+00
  -3.5221455E+01  -2.3292839E+01  -4.7528100E+00
  -3.4575527E+01  -2.4015572E+01  -3.8819766E+00
  -1.4856788E+01  -1.0786248E+01  -7.7069998E-01
   1.2354457E-01  -1.3620853E-01   6.2751102E-01
   8.4323645E-02  -1.1281586E-01   6.4386082E-01
   4.0653229E-02  -1.0107422E-01   6.5029812E-01
  -2.2096634E-03  -1.0126495E-01   6.4680195E-01
  -3.9734840E-02  -1.1188698E-01   6.3490844E-01
  -6.8938255E-02  -1.3024139E-01   6.1712205E-01
  -8.8654041E-02  -1.5315437E-01   5.9627104E-01
  -9.9257946E-02  -1.7770386E-01   5.7487881E-01
  -1.0217619E-01  -2.0157862E-01   5.5484533E-01
  -9.9292278E-02  -2.2326565E-01   5.3733552E-01
  -9.2517853E-02  -2.4196815E-01   5.2287114E-01
  -1.0044716E+01  -1.3354800E+00   3.1953452E+00
  -1.0383326E+01  -1.3715793E+00   3.2806778E+00
  -1.0731232E+01  -1.4091027E+00   3.3665354E+00
  -1.1088691E+01  -1.4482118E+00   3.4526196E+00
  -1.1455997E+01  -1.4890932E+00   3.5385921E+00
  -1.1833497E+01  -1.5319622E+00   3.6240726E+00
  -1.2221593E+01  -1.5770651E+00   3.7086306E+00
  -1.2620749E+01  -1.6246836E+00   3.7917790E+00
  -1.3031500E+01  -1.6751382E+00   3.8729687E+00
  -1.3454463E+01  -1.7287931E+00   3.9515765E+00
  -1.3890336E+01  -1.7860599E+00   4.0268970E+00
  -1.4339911E+01  -1.8474038E+00   4.0981317E+00
  -1.4804069E+01  -1.9133492E+00   4.1643758E+00
  -1.5283792E+01  -1.9844855E+00   4.2246056E+00
  -1.5780153E+01  -2.0614753E+00   4.2776656E+00
  -1.6294323E+01  -2.1450632E+00   4.3222556E+00
  -1.6827551E+01  -2.2360847E+00   4.3569174E+00
  -1.7381166E+01  -2.3354793E+00   4.3800254E+00
  -1.7956562E+01  -2.4443045E+00   4.3897767E+00
  -1.8555166E+01  -2.5637522E+00   4.3841867E+00
  -1.9178434E+01  -2.6951721E+00   4.3610859E+00
  -1.9827822E+01  -2.8400958E+00   4.3181214E+00
  -2.0504753E+01  -3.0002708E+00   4.2527628E+00
  -2.1210592E+01  -3.1776989E+00   4.1623049E+00
  -2.1946609E+01  -3.3746836E+00   4.0438786E+00
  -2.2713921E+01  -3.5938888E+00   3.8944561E+00
  -2.3513468E+01  -3.8384106E+00   3.7108500E+00
  -2.4345877E+01  -4.1118536E+00   3.4897332E+00
  -2.5211391E+01  -4.4184303E+00   3.2276468E+00
  -2.6109697E+01  -4.7630687E+00   2.9210348E+00
  -2.7039734E+01  -5.1515408E+00   2.5663126E+00
  -2.7999439E+01  -5.5905976E+00   2.1599813E+00
  -2.8985464E+01  -6.0881176E+00   1.6988084E+00
  -2.9992847E+01  -6.6532445E+00   1.1800647E+00
  -3.1014648E+01  -7.2964902E+00   6.0183334E-01
  -3.2041542E+01  -8.0297451E+00  -3.6641836E-02
  -3.3061359E+01  -8.8661108E+00  -7.3458469E-01
  -3.4058495E+01  -9.8194122E+00  -1.4892895E+00
  -3.5013184E+01  -1.0903218E+01  -2.2956591E+00
  -3.5900578E+01  -1.2129095E+01  -3.1455286E+00
  -3.6689838E+01  -1.3503920E+01  -4.0265355E+00
  -3.7343475E+01  -1.5026010E+01  -4.9202151E+00
  -3.7817875E+01  -1.6680222E+01  -5.7990403E+00
  -3.8065971E+01  -1.8432425E+01  -6.6224356E+00
  -3.8043480E+01  -2.0224569E+01  -7.3325286E+00
  -3.7719387E+01  -2.1972080E+01  -7.8511300E+00
  -3.7090004E+01  -2.3565865E+01  -8.0802736E+00
  -3.6193848E+01  -2.4880852E+01  -7.9083958E+00
  -3.5122211E+01  -2.5791388E+01  -7.2228484E+00
  -3.4020004E+01  -2.6190979E+01  -5.9266448E+00
  -2.4472891E+01  -1.9307415E+01  -2.7557254E+00
   1.0405922E-01  -8.0759048E-02   7.0001411E-01
   4.6492100E-02  -6.6831589E-02   7.0867395E-01
  -9.3832016E-03  -6.8377495E-02   7.0266390E-01
  -5.7211399E-02  -8.3093643E-02   6.8454790E-01
  -9.3078613E-02  -1.0714817E-01   6.5834451E-01
  -1.1580086E-01  -1.3621044E-01   6.2838984E-01
  -1.2640285E-01  -1.6645718E-01   5.9840143E-01
  -1.2723494E-01  -1.9506693E-01   5.7098722E-01
  -1.2110090E-01  -2.2034359E-01   5.4761243E-01
  -1.1064911E-01  -2.4154520E-01   5.2876717E-01
  -1.0076541E+01  -1.2315164E+00   3.1854868E+00
  -1.0416409E+01  -1.2641526E+00   3.2692153E+00
  -1.0765731E+01  -1.2980833E+00   3.3533373E+00
  -1.1124785E+01  -1.3334550E+00   3.4375513E+00
  -1.1493897E+01  -1.3704381E+00   3.5215166E+00
  -1.1873443E+01  -1.4092289E+00   3.6048501E+00
  -1.2263855E+01  -1.4500523E+00   3.6871181E+00
  -1.2665642E+01  -1.4931655E+00   3.7678318E+00
  -1.3079378E+01  -1.5388620E+00   3.8464375E+00
  -1.3505726E+01  -1.5874748E+00   3.9223082E+00
  -1.3945436E+01  -1.6393819E+00   3.9947329E+00
  -1.4399353E+01  -1.6950107E+00   4.0629063E+00
  -1.4868422E+01  -1.7548436E+00   4.1259146E+00
  -1.5353691E+01  -1.8194256E+00   4.1827216E+00
  -1.5856313E+01  -1.8893702E+00   4.2321577E+00
  -1.6377535E+01  -1.9653693E+00   4.2729020E+00
  -1.6918707E+01  -2.0482032E+00   4.3034720E+00
  -1.7481264E+01  -2.1387529E+00   4.3222098E+00
  -1.8066713E+01  -2.2380154E+00   4.3272710E+00
  -1.8676628E+01  -2.3471224E+00   4.3166189E+00
  -1.9312626E+01  -2.4673636E+00   4.2880168E+00
  -1.9976347E+01  -2.6002135E+00   4.2390251E+00
  -2.0669441E+01  -2.7473693E+00   4.1670008E+00
  -2.1393539E+01  -2.9107921E+00   4.0690947E+00
  -2.2150225E+01  -3.0927620E+00   3.9422507E+00
  -2.2941010E+01  -3.2959452E+00   3.7831917E+00
  -2.3767267E+01  -3.5234714E+00   3.5884209E+00
  -2.4630182E+01  -3.7790334E+00   3.3542023E+00
  -2.5530643E+01  -4.0670056E+00   3.0765548E+00
  -2.6469101E+01  -4.3925815E+00   2.7512519E+00
  -2.7445421E+01  -4.7619462E+00   2.3738530E+00
  -2.8458624E+01  -5.1824665E+00   1.9397548E+00
  -2.9506626E+01  -5.6629176E+00   1.4442990E+00
  -3.0585920E+01  -6.2137146E+00   8.8290584E-01
  -3.1691160E+01  -6.8471408E+00   2.5124207E-01
  -3.2814651E+01  -7.5774946E+00  -4.5460463E-01
  -3.3945656E+01  -8.4210796E+00  -1.2379421E+00
  -3.5069412E+01  -9.3958645E+00  -2.1012564E+00
  -3.6165741E+01  -1.0520586E+01  -3.0458374E+00
  -3.7207191E+01  -1.1812965E+01  -4.0709620E+00
  -3.8156849E+01  -1.3286718E+01  -5.1722622E+00
  -3.8966324E+01  -1.4946961E+01  -6.3386531E+00
  -3.9574963E+01  -1.6783989E+01  -7.5474281E+00
  -3.9912128E+01  -1.8765709E+01  -8.7574024E+00
  -3.9904533E+01  -2.0830099E+01  -9.9011745E+00
  -3.9490360E+01  -2.2879892E+01  -1.0878803E+01
  -3.8639900E+01  -2.4783108E+01  -1.1556694E+01
  -3.7378876E+01  -2.6382505E+01  -1.1775603E+01
  -3.5807091E+01  -2.7515636E+01  -1.1369836E+01
  -3.4102669E+01  -2.8042984E+01  -1.0195233E+01
  -3.2505020E+01  -2.7876320E+01  -8.1578417E+00
  -2.4074505E+01  -2.0816921E+01  -3.8542933E+00
   5.2595615E-02  -3.4008026E-02   7.8606319E-01
  -1.9801140E-02  -3.7328720E-02   7.7608490E-01
  -8.0229759E-02  -5.6927681E-02   7.4884892E-01
  -1.2368107E-01  -8.7439537E-02   7.1071672E-01
  -1.4919853E-01  -1.2313366E-01   6.6826296E-01
  -1.5885353E-01  -1.5920925E-01   6.2682772E-01
  -1.5634727E-01  -1.9236040E-01   5.8990514E-01
  -1.4572239E-01  -2.2080421E-01   5.5921197E-01
  -1.3053656E-01  -2.4396610E-01   5.3509712E-01
  -1.0099975E+01  -1.1223693E+00   3.1735651E+00
  -1.0440830E+01  -1.1513422E+00   3.2558222E+00
  -1.0791279E+01  -1.1814698E+00   3.3383617E+00
  -1.1151622E+01  -1.2128842E+00   3.4208808E+00
  -1.1522208E+01  -1.2457378E+00   3.5030375E+00
  -1.1903442E+01  -1.2802063E+00   3.5844464E+00
  -1.2295792E+01  -1.3164918E+00   3.6646740E+00
  -1.2699795E+01  -1.3548253E+00   3.7432287E+00
  -1.3116067E+01  -1.3954701E+00   3.8195558E+00
  -1.3545312E+01  -1.4387264E+00   3.8930254E+00
  -1.3988325E+01  -1.4849343E+00   3.9629235E+00
  -1.4446007E+01  -1.5344802E+00   4.0284395E+00
  -1.4919356E+01  -1.5878005E+00   4.0886536E+00
  -1.5409488E+01  -1.6453888E+00   4.1425214E+00
  -1.5917621E+01  -1.7078034E+00   4.1888595E+00
  -1.6445087E+01  -1.7756754E+00   4.2263322E+00
  -1.6993326E+01  -1.8497193E+00   4.2534356E+00
  -1.7563869E+01  -1.9307452E+00   4.2684841E+00
  -1.8158348E+01  -2.0196753E+00   4.2695980E+00
  -1.8778471E+01  -2.1175606E+00   4.2546926E+00
  -1.9426016E+01  -2.2256072E+00   4.2214694E+00
  -2.0102814E+01  -2.3452034E+00   4.1674085E+00
  -2.0810745E+01  -2.4779589E+00   4.0897608E+00
  -2.1551714E+01  -2.6257486E+00   3.9855371E+00
  -2.2327627E+01  -2.7907710E+00   3.8514993E+00
  -2.3140408E+01  -2.9756205E+00   3.6841309E+00
  -2.3991913E+01  -3.1833742E+00   3.4796212E+00
  -2.4883913E+01  -3.4177015E+00   3.2338238E+00
  -2.5818014E+01  -3.6829998E+00   2.9422226E+00
  -2.6795563E+01  -3.9845624E+00   2.5998971E+00
  -2.7817471E+01  -4.3287778E+00   2.2014937E+00
  -2.8884064E+01  -4.7233815E+00   1.7412159E+00
  -2.9994823E+01  -5.1777487E+00   1.2128248E+00
  -3.1148094E+01  -5.7032256E+00   6.0963899E-01
  -3.2340656E+01  -6.3134809E+00  -7.5483099E-02
  -3.3567154E+01  -7.0248213E+00  -8.5021049E-01
  -3.4819172E+01  -7.8563824E+00  -1.7228327E+00
  -3.6083866E+01  -8.8300114E+00  -2.7023377E+00
  -3.7341831E+01  -9.9695683E+00  -3.7982497E+00
  -3.8564167E+01  -1.1299307E+01  -5.0198450E+00
  -3.9708725E+01  -1.2840754E+01  -6.3740644E+00
  -4.0716137E+01  -1.4607629E+01  -7.8612671E+00
  -4.1507034E+01  -1.6598366E+01  -9.4679546E+00
  -4.1982964E+01  -1.8786394E+01  -1.1156193E+01
  -4.2034149E+01  -2.1109318E+01  -1.2850742E+01
  -4.1557518E+01  -2.3459995E+01  -1.4427309E+01
  -4.0485443E+01  -2.5683954E+01  -1.5707469E+01
  -3.8821358E+01  -2.7588863E+01  -1.6467663E+01
  -3.6671154E+01  -2.8969444E+01  -1.6466978E+01
  -3.4254498E+01  -2.9645473E+01  -1.5491606E+01
  -3.1883394E+01  -2.9502674E+01  -1.3403324E+01
  -2.9907475E+01  -2.8521015E+01  -1.0172791E+01
  -1.3706388E+01  -1.2847067E+01  -2.3598700E+00
  -3.3977509E-02  -1.3927460E-02   8.6918545E-01
  -1.0933876E-01  -3.8669586E-02   8.2909107E-01
  -1.6105175E-01  -7.5659752E-02   7.7470160E-01
  -1.8875790E-01  -1.1761761E-01   7.1573162E-01
  -1.9616985E-01  -1.5878201E-01   6.5964580E-01
  -1.8884277E-01  -1.9547653E-01   6.1096525E-01
  -1.7237759E-01  -2.2600508E-01   5.7154411E-01
  -1.5141392E-01  -2.5008249E-01   5.4137444E-01
  -1.0116503E+01  -1.0085421E+00   3.1601129E+00
  -1.0458119E+01  -1.0336741E+00   3.2410381E+00
  -1.0809450E+01  -1.0598134E+00   3.3221540E+00
  -1.1170816E+01  -1.0870757E+00   3.4031572E+00
  -1.1542591E+01  -1.1155944E+00   3.4837055E+00
  -1.1925202E+01  -1.1455239E+00   3.5634136E+00
  -1.2319146E+01  -1.1770412E+00   3.6418462E+00
  -1.2724990E+01  -1.2103491E+00   3.7185128E+00
  -1.3143386E+01  -1.2456793E+00   3.7928574E+00
  -1.3575073E+01  -1.2832954E+00   3.8642492E+00
  -1.4020893E+01  -1.3234975E+00   3.9319727E+00
  -1.4481788E+01  -1.3666260E+00   3.9952142E+00
  -1.4958814E+01  -1.4130671E+00   4.0530491E+00
  -1.5453139E+01  -1.4632579E+00   4.1044259E+00
  -1.5966051E+01  -1.5176940E+00   4.1481533E+00
  -1.6498955E+01  -1.5769376E+00   4.1828828E+00
  -1.7053371E+01  -1.6416272E+00   4.2070918E+00
  -1.7630932E+01  -1.7124894E+00   4.2190723E+00
  -1.8233379E+01  -1.7903546E+00   4.2169123E+00
  -1.8862551E+01  -1.8761749E+00   4.1984854E+00
  -1.9520382E+01  -1.9710473E+00   4.1614380E+00
  -2.0208891E+01  -2.0762434E+00   4.1031756E+00
  -2.0930180E+01  -2.1932456E+00   4.0208516E+00
  -2.1686420E+01  -2.3237932E+00   3.9113464E+00
  -2.2479858E+01  -2.4699411E+00   3.7712488E+00
  -2.3312815E+01  -2.6341329E+00   3.5968130E+00
  -2.4187651E+01  -2.8192921E+00   3.3839242E+00
  -2.5106749E+01  -3.0289378E+00   3.1280358E+00
  -2.6072477E+01  -3.2673311E+00   2.8241019E+00
  -2.7087116E+01  -3.5396566E+00   2.4665010E+00
  -2.8152760E+01  -3.8522534E+00   2.0489492E+00
  -2.9271183E+01  -4.2128997E+00   1.5644051E+00
  -3.0443663E+01  -4.6311641E+00   1.0049511E+00
  -3.1670723E+01  -5.1188207E+00   3.6162719E-01
  -3.2951763E+01  -5.6903181E+00  -3.7581947E-01
  -3.4284409E+01  -6.3632607E+00  -1.2192987E+00
  -3.5663483E+01  -7.1588097E+00  -2.1828604E+00
  -3.7079201E+01  -8.1018457E+00  -3.2831879E+00
  -3.8514389E+01  -9.2205954E+00  -4.5398545E+00
  -3.9940323E+01  -1.0545307E+01  -5.9747572E+00
  -4.1311165E+01  -1.2105324E+01  -7.6098433E+00
  -4.2557503E+01  -1.3923820E+01  -9.4617157E+00
  -4.3580715E+01  -1.6009453E+01  -1.1531844E+01
  -4.4251213E+01  -1.8344624E+01  -1.3791298E+01
  -4.4415646E+01  -2.0871349E+01  -1.6160986E+01
  -4.3918041E+01  -2.3477678E+01  -1.8491352E+01
  -4.2638454E+01  -2.5990845E+01  -2.0550184E+01
  -4.0544922E+01  -2.8185139E+01  -2.2030485E+01
  -3.7743683E+01  -2.9810684E+01  -2.2588331E+01
  -3.4503250E+01  -3.0642351E+01  -2.1910454E+01
  -3.1229330E+01  -3.0535421E+01  -1.9792885E+01
  -2.8386829E+01  -2.9465969E+01  -1.6198017E+01
  -2.6393679E+01  -2.7536537E+01  -1.1261055E+01
  -5.1849365E-02  -6.6375732E-03   9.8136711E-01
  -1.4414978E-01  -3.5713196E-02   9.2413425E-01
  -2.0435238E-01  -7.7817917E-02   8.4871674E-01
  -2.3323727E-01  -1.2421703E-01   7.6904488E-01
  -2.3685932E-01  -1.6837215E-01   6.9523048E-01
  -2.2318363E-01  -2.0651722E-01   6.3281035E-01
  -1.9965553E-01  -2.3720932E-01   5.8358276E-01
  -1.7205143E-01  -2.6059198E-01   5.4688418E-01
  -1.0127596E+01  -8.9060098E-01   3.1460695E+00
  -1.0469788E+01  -9.1173697E-01   3.2258182E+00
  -1.0821795E+01  -9.3372542E-01   3.3056841E+00
  -1.1183960E+01  -9.5666438E-01   3.3853631E+00
  -1.1556674E+01  -9.8066759E-01   3.4645138E+00
  -1.1940388E+01  -1.0058661E+00   3.5427506E+00
  -1.2335619E+01  -1.0324107E+00   3.6196396E+00
  -1.2742965E+01  -1.0604743E+00   3.6946898E+00
  -1.3163105E+01  -1.0902541E+00   3.7673459E+00
  -1.3596814E+01  -1.1219754E+00   3.8369770E+00
  -1.4044968E+01  -1.1558944E+00   3.9028666E+00
  -1.4508551E+01  -1.1923025E+00   3.9641995E+00
  -1.4988666E+01  -1.2315301E+00   4.0200481E+00
  -1.5486531E+01  -1.2739528E+00   4.0693560E+00
  -1.6003494E+01  -1.3199972E+00   4.1109252E+00
  -1.6541027E+01  -1.3701479E+00   4.1433969E+00
  -1.7100721E+01  -1.4249574E+00   4.1652346E+00
  -1.7684305E+01  -1.4850563E+00   4.1747088E+00
  -1.8293615E+01  -1.5511680E+00   4.1698828E+00
  -1.8930613E+01  -1.6241250E+00   4.1485929E+00
  -1.9597380E+01  -1.7048917E+00   4.1084361E+00
  -2.0296104E+01  -1.7945905E+00   4.0467529E+00
  -2.1029100E+01  -1.8945378E+00   3.9606073E+00
  -2.1798800E+01  -2.0062869E+00   3.8467627E+00
  -2.2607763E+01  -2.1316845E+00   3.7016482E+00
  -2.3458704E+01  -2.2729404E+00   3.5213060E+00
  -2.4354464E+01  -2.4327188E+00   3.3013387E+00
  -2.5298044E+01  -2.6142521E+00   3.0368216E+00
  -2.6292568E+01  -2.8214869E+00   2.7222042E+00
  -2.7341272E+01  -3.0592725E+00   2.3511889E+00
  -2.8447460E+01  -3.3335981E+00   1.9165781E+00
  -2.9614433E+01  -3.6518996E+00   1.4100935E+00
  -3.0845390E+01  -4.0234404E+00   8.2212019E-01
  -3.2143253E+01  -4.4597778E+00   1.4135391E-01
  -3.3510357E+01  -4.9753199E+00  -6.4571601E-01
  -3.4947845E+01  -5.5879350E+00  -1.5555255E+00
  -3.6454498E+01  -6.3195438E+00  -2.6083941E+00
  -3.8024685E+01  -7.1965637E+00  -3.8295727E+00
  -3.9644920E+01  -8.2498980E+00  -5.2501202E+00
  -4.1288517E+01  -9.5140686E+00  -6.9068470E+00
  -4.2908058E+01  -1.1024715E+01  -8.8401289E+00
  -4.4426048E+01  -1.2813612E+01  -1.1087744E+01
  -4.5725533E+01  -1.4900047E+01  -1.3672504E+01
  -4.6644428E+01  -1.7277786E+01  -1.6581696E+01
  -4.6980255E+01  -1.9898069E+01  -1.9738596E+01
  -4.6513580E+01  -2.2651520E+01  -2.2970341E+01
  -4.5057079E+01  -2.5356144E+01  -2.5984228E+01
  -4.2527668E+01  -2.7761667E+01  -2.8370800E+01
  -3.9022907E+01  -2.9580521E+01  -2.9652639E+01
  -3.4864815E+01  -3.0546284E+01  -2.9382273E+01
  -3.0573294E+01  -3.0484461E+01  -2.7263647E+01
  -2.6758574E+01  -2.9365932E+01  -2.3244719E+01
  -2.3968445E+01  -2.7315960E+01  -1.7531750E+01
  -2.2556572E+01  -2.4572542E+01  -1.0513632E+01
  -1.8264008E-01  -5.6797028E-02   1.0285912E+00
  -2.5094795E-01  -1.0057926E-01   9.2794418E-01
  -2.7972603E-01  -1.4756966E-01   8.2421875E-01
  -2.7807045E-01  -1.9094753E-01   7.3049688E-01
  -2.5680351E-01  -2.2717142E-01   6.5324736E-01
  -2.2540951E-01  -2.5526524E-01   5.9384775E-01
  -1.9079590E-01  -2.7578878E-01   5.5070263E-01
  -1.0134611E+01  -7.6917869E-01   3.1325815E+00
  -1.0477222E+01  -7.8618646E-01   3.2113295E+00
  -1.0829739E+01  -8.0388469E-01   3.2901371E+00
  -1.1192511E+01  -8.2235342E-01   3.3687010E+00
  -1.1565948E+01  -8.4168524E-01   3.4466791E+00
  -1.1950520E+01  -8.6198688E-01   3.5236876E+00
  -1.2346764E+01  -8.8338137E-01   3.5992928E+00
  -1.2755301E+01  -9.0600967E-01   3.6730051E+00
  -1.3176833E+01  -9.3003297E-01   3.7442689E+00
  -1.3612165E+01  -9.5563519E-01   3.8124545E+00
  -1.4062202E+01  -9.8302603E-01   3.8768446E+00
  -1.4527966E+01  -1.0124439E+00   3.9366241E+00
  -1.5010596E+01  -1.0441601E+00   3.9908628E+00
  -1.5511358E+01  -1.0784831E+00   4.0385017E+00
  -1.6031645E+01  -1.1157637E+00   4.0783367E+00
  -1.6572987E+01  -1.1564019E+00   4.1090016E+00
  -1.7137045E+01  -1.2008542E+00   4.1289468E+00
  -1.7725618E+01  -1.2496436E+00   4.1364298E+00
  -1.8340637E+01  -1.3033714E+00   4.1294885E+00
  -1.8984167E+01  -1.3627329E+00   4.1059299E+00
  -1.9658421E+01  -1.4285353E+00   4.0633092E+00
  -2.0365736E+01  -1.5017228E+00   3.9989102E+00
  -2.1108620E+01  -1.5834074E+00   3.9097209E+00
  -2.1889734E+01  -1.6749076E+00   3.7924006E+00
  -2.2711926E+01  -1.7777994E+00   3.6432393E+00
  -2.3578268E+01  -1.8939774E+00   3.4580927E+00
  -2.4492054E+01  -2.0257409E+00   3.2323101E+00
  -2.5456844E+01  -2.1758971E+00   2.9606276E+00
  -2.6476480E+01  -2.3478980E+00   2.6370382E+00
  -2.7555117E+01  -2.5460176E+00   2.2546229E+00
  -2.8697220E+01  -2.7755802E+00   1.8053405E+00
  -2.9907579E+01  -3.0432580E+00   1.2797470E+00
  -3.1191311E+01  -3.3574481E+00   6.6661233E-01