# vtk DataFile Version 3.0
SM polar seed points transformed to GSW coordinates
ASCII
DATASET POLYDATA
POINTS      288 float
       0.769603       0.000000       1.287521
       0.744051       0.194114       1.287909
       0.669134       0.375000       1.289044
       0.549959       0.530330       1.290851
       0.394646       0.649519       1.293205
       0.213781       0.724444       1.295947
       0.019689       0.750000       1.298889
      -0.174403       0.724444       1.301831
      -0.355268       0.649519       1.304573
      -0.510580       0.530330       1.306927
      -0.629755       0.375000       1.308734
      -0.704672       0.194114       1.309869
      -0.730224      -0.000000       1.310257
      -0.704672      -0.194114       1.309869
      -0.629755      -0.375000       1.308734
      -0.510580      -0.530330       1.306927
      -0.355267      -0.649519       1.304573
      -0.174403      -0.724444       1.301831
       0.019689      -0.750000       1.298889
       0.213781      -0.724444       1.295947
       0.394646      -0.649519       1.293205
       0.549958      -0.530330       1.290851
       0.669134      -0.375000       1.289044
       0.744050      -0.194114       1.287909
       0.654460       0.000000       1.349697
       0.632862       0.164072       1.350025
       0.569539       0.316964       1.350984
       0.468808       0.448254       1.352511
       0.337532       0.548997       1.354501
       0.184659       0.612327       1.356819
       0.020605       0.633927       1.359306
      -0.143448       0.612327       1.361792
      -0.296322       0.548997       1.364110
      -0.427598       0.448254       1.366100
      -0.528329       0.316964       1.367627
      -0.591651       0.164073       1.368587
      -0.613249      -0.000000       1.368914
      -0.591651      -0.164073       1.368587
      -0.528329      -0.316964       1.367627
      -0.427598      -0.448254       1.366100
      -0.296322      -0.548997       1.364110
      -0.143448      -0.612327       1.361792
       0.020605      -0.633927       1.359306
       0.184659      -0.612327       1.356819
       0.337532      -0.548997       1.354501
       0.468808      -0.448254       1.352511
       0.569539      -0.316964       1.350984
       0.632862      -0.164073       1.350025
       0.534336       0.000000       1.401601
       0.516856       0.132782       1.401866
       0.465610       0.256515       1.402643
       0.384090       0.362767       1.403879
       0.277850       0.444297       1.405489
       0.154131       0.495549       1.407364
       0.021364       0.513030       1.409377
      -0.111403       0.495549       1.411390
      -0.235121       0.444297       1.413265
      -0.341361       0.362767       1.414876
      -0.422882       0.256515       1.416111
      -0.474128       0.132782       1.416888
      -0.491607      -0.000000       1.417153
      -0.474128      -0.132782       1.416888
      -0.422882      -0.256515       1.416111
      -0.341361      -0.362767       1.414876
      -0.235121      -0.444297       1.413265
      -0.111402      -0.495549       1.411390
       0.021364      -0.513030       1.409377
       0.154131      -0.495549       1.407364
       0.277850      -0.444297       1.405489
       0.384090      -0.362767       1.403879
       0.465610      -0.256515       1.402643
       0.516856      -0.132782       1.401866
       0.410145       0.000000       1.442838
       0.396918       0.100481       1.443039
       0.358138       0.194114       1.443626
       0.296448       0.274519       1.444561
       0.216053       0.336216       1.445780
       0.122430       0.375000       1.447199
       0.021961       0.388229       1.448722
      -0.078509       0.375000       1.450245
      -0.172131       0.336216       1.451665
      -0.252527       0.274519       1.452883
      -0.314217       0.194114       1.453818
      -0.352996       0.100481       1.454406
      -0.366223      -0.000000       1.454607
      -0.352996      -0.100481       1.454406
      -0.314217      -0.194114       1.453818
      -0.252527      -0.274519       1.452883
      -0.172131      -0.336216       1.451665
      -0.078509      -0.375000       1.450245
       0.021961      -0.388229       1.448722
       0.122430      -0.375000       1.447199
       0.216053      -0.336216       1.445780
       0.296448      -0.274519       1.444561
       0.358138      -0.194114       1.443626
       0.396918      -0.100481       1.443039
       0.282832       0.000000       1.473094
       0.273958       0.067415       1.473228
       0.247940       0.130236       1.473623
       0.206551       0.184182       1.474250
       0.152611       0.225576       1.475068
       0.089797       0.251597       1.476020
       0.022390       0.260472       1.477042
      -0.045018       0.251597       1.478064
      -0.107831       0.225576       1.479016
      -0.161771       0.184182       1.479834
      -0.203160       0.130236       1.480461
      -0.229178       0.067415       1.480855
      -0.238052      -0.000000       1.480990
      -0.229178      -0.067415       1.480855
      -0.203160      -0.130236       1.480461
      -0.161771      -0.184182       1.479834
      -0.107831      -0.225576       1.479016
      -0.045017      -0.251597       1.478064
       0.022390      -0.260472       1.477042
       0.089797      -0.251597       1.476020
       0.152611      -0.225576       1.475068
       0.206551      -0.184182       1.474250
       0.247940      -0.130236       1.473623
       0.273958      -0.067415       1.473228
       0.153368       0.000000       1.492139
       0.148913       0.033836       1.492206
       0.135855       0.065367       1.492404
       0.115081       0.092443       1.492719
       0.088008       0.113219       1.493130
       0.056481       0.126279       1.493608
       0.022649       0.130734       1.494120
      -0.011184       0.126279       1.494633
      -0.042711       0.113219       1.495111
      -0.069783       0.092443       1.495522
      -0.090557       0.065367       1.495836
      -0.103616       0.033836       1.496034
      -0.108070      -0.000000       1.496102
      -0.103616      -0.033836       1.496034
      -0.090557      -0.065367       1.495836
      -0.069783      -0.092443       1.495522
      -0.042710      -0.113219       1.495111
      -0.011184      -0.126279       1.494633
       0.022649      -0.130734       1.494120
       0.056481      -0.126279       1.493608
       0.088008      -0.113219       1.493130
       0.115081      -0.092443       1.492719
       0.135855      -0.065367       1.492404
       0.148913      -0.033836       1.492206
       0.730224       0.000000      -1.310257
       0.704672       0.194114      -1.309869
       0.629755       0.375000      -1.308734
       0.510580       0.530330      -1.306927
       0.355267       0.649519      -1.304573
       0.174403       0.724444      -1.301831
      -0.019689       0.750000      -1.298889
      -0.213781       0.724444      -1.295947
      -0.394646       0.649519      -1.293205
      -0.549959       0.530330      -1.290851
      -0.669134       0.375000      -1.289044
      -0.744050       0.194114      -1.287909
      -0.769603      -0.000000      -1.287521
      -0.744051      -0.194114      -1.287909
      -0.669134      -0.375000      -1.289044
      -0.549959      -0.530330      -1.290851
      -0.394646      -0.649519      -1.293205
      -0.213781      -0.724444      -1.295947
      -0.019689      -0.750000      -1.298889
       0.174403      -0.724444      -1.301831
       0.355267      -0.649519      -1.304573
       0.510580      -0.530330      -1.306927
       0.629755      -0.375000      -1.308734
       0.704672      -0.194114      -1.309869
       0.613249       0.000000      -1.368914
       0.591651       0.164072      -1.368587
       0.528329       0.316964      -1.367627
       0.427598       0.448254      -1.366100
       0.296322       0.548997      -1.364110
       0.143448       0.612327      -1.361792
      -0.020605       0.633927      -1.359306
      -0.184659       0.612327      -1.356819
      -0.337533       0.548997      -1.354501
      -0.468808       0.448254      -1.352511
      -0.569539       0.316964      -1.350984
      -0.632862       0.164073      -1.350025
      -0.654460      -0.000000      -1.349697
      -0.632862      -0.164073      -1.350025
      -0.569539      -0.316964      -1.350984
      -0.468808      -0.448254      -1.352511
      -0.337532      -0.548997      -1.354501
      -0.184659      -0.612327      -1.356819
      -0.020605      -0.633927      -1.359306
       0.143448      -0.612327      -1.361792
       0.296322      -0.548997      -1.364110
       0.427598      -0.448254      -1.366100
       0.528329      -0.316964      -1.367627
       0.591651      -0.164073      -1.368587
       0.491607       0.000000      -1.417153
       0.474128       0.132782      -1.416888
       0.422882       0.256515      -1.416111
       0.341361       0.362767      -1.414876
       0.235121       0.444297      -1.413265
       0.111403       0.495549      -1.411390
      -0.021364       0.513030      -1.409377
      -0.154131       0.495549      -1.407364
      -0.277850       0.444297      -1.405489
      -0.384090       0.362767      -1.403879
      -0.465610       0.256515      -1.402643
      -0.516856       0.132782      -1.401866
      -0.534336      -0.000000      -1.401601
      -0.516856      -0.132782      -1.401866
      -0.465610      -0.256515      -1.402643
      -0.384090      -0.362767      -1.403879
      -0.277850      -0.444297      -1.405489
      -0.154131      -0.495549      -1.407364
      -0.021364      -0.513030      -1.409377
       0.111402      -0.495549      -1.411390
       0.235121      -0.444297      -1.413265
       0.341361      -0.362767      -1.414876
       0.422882      -0.256515      -1.416111
       0.474128      -0.132782      -1.416888
       0.366223       0.000000      -1.454607
       0.352996       0.100481      -1.454406
       0.314217       0.194114      -1.453818
       0.252527       0.274519      -1.452883
       0.172131       0.336216      -1.451665
       0.078509       0.375000      -1.450245
      -0.021961       0.388229      -1.448722
      -0.122430       0.375000      -1.447199
      -0.216053       0.336216      -1.445780
      -0.296448       0.274519      -1.444561
      -0.358138       0.194114      -1.443626
      -0.396918       0.100481      -1.443039
      -0.410145      -0.000000      -1.442838
      -0.396918      -0.100481      -1.443039
      -0.358138      -0.194114      -1.443626
      -0.296448      -0.274519      -1.444561
      -0.216053      -0.336216      -1.445780
      -0.122430      -0.375000      -1.447199
      -0.021961      -0.388229      -1.448722
       0.078509      -0.375000      -1.450245
       0.172131      -0.336216      -1.451665
       0.252527      -0.274519      -1.452883
       0.314217      -0.194114      -1.453818
       0.352996      -0.100481      -1.454406
       0.238052       0.000000      -1.480990
       0.229178       0.067415      -1.480855
       0.203160       0.130236      -1.480461
       0.161771       0.184182      -1.479834
       0.107831       0.225576      -1.479016
       0.045018       0.251597      -1.478064
      -0.022390       0.260472      -1.477042
      -0.089797       0.251597      -1.476020
      -0.152611       0.225576      -1.475068
      -0.206551       0.184182      -1.474250
      -0.247940       0.130236      -1.473623
      -0.273958       0.067415      -1.473228
      -0.282832      -0.000000      -1.473094
      -0.273958      -0.067415      -1.473228
      -0.247940      -0.130236      -1.473623
      -0.206551      -0.184182      -1.474250
      -0.152611      -0.225576      -1.475068
      -0.089797      -0.251597      -1.476020
      -0.022390      -0.260472      -1.477042
       0.045017      -0.251597      -1.478064
       0.107831      -0.225576      -1.479016
       0.161771      -0.184182      -1.479834
       0.203160      -0.130236      -1.480461
       0.229178      -0.067415      -1.480855
       0.108070       0.000000      -1.496102
       0.103616       0.033836      -1.496034
       0.090557       0.065367      -1.495836
       0.069783       0.092443      -1.495522
       0.042711       0.113219      -1.495111
       0.011184       0.126279      -1.494633
      -0.022649       0.130734      -1.494120
      -0.056481       0.126279      -1.493608
      -0.088008       0.113219      -1.493130
      -0.115081       0.092443      -1.492719
      -0.135855       0.065367      -1.492404
      -0.148913       0.033836      -1.492206
      -0.153368      -0.000000      -1.492139
      -0.148913      -0.033836      -1.492206
      -0.135855      -0.065367      -1.492404
      -0.115081      -0.092443      -1.492719
      -0.088008      -0.113219      -1.493130
      -0.056481      -0.126279      -1.493608
      -0.022649      -0.130734      -1.494120
       0.011184      -0.126279      -1.494633
       0.042711      -0.113219      -1.495111
       0.069783      -0.092443      -1.495522
       0.090557      -0.065367      -1.495836
       0.103616      -0.033836      -1.496034
VERTICES      288     576
 1        0
 1        1
 1        2
 1        3
 1        4
 1        5
 1        6
 1        7
 1        8
 1        9
 1       10
 1       11
 1       12
 1       13
 1       14
 1       15
 1       16
 1       17
 1       18
 1       19
 1       20
 1       21
 1       22
 1       23
 1       24
 1       25
 1       26
 1       27
 1       28
 1       29
 1       30
 1       31
 1       32
 1       33
 1       34
 1       35
 1       36
 1       37
 1       38
 1       39
 1       40
 1       41
 1       42
 1       43
 1       44
 1       45
 1       46
 1       47
 1       48
 1       49
 1       50
 1       51
 1       52
 1       53
 1       54
 1       55
 1       56
 1       57
 1       58
 1       59
 1       60
 1       61
 1       62
 1       63
 1       64
 1       65
 1       66
 1       67
 1       68
 1       69
 1       70
 1       71
 1       72
 1       73
 1       74
 1       75
 1       76
 1       77
 1       78
 1       79
 1       80
 1       81
 1       82
 1       83
 1       84
 1       85
 1       86
 1       87
 1       88
 1       89
 1       90
 1       91
 1       92
 1       93
 1       94
 1       95
 1       96
 1       97
 1       98
 1       99
 1      100
 1      101
 1      102
 1      103
 1      104
 1      105
 1      106
 1      107
 1      108
 1      109
 1      110
 1      111
 1      112
 1      113
 1      114
 1      115
 1      116
 1      117
 1      118
 1      119
 1      120
 1      121
 1      122
 1      123
 1      124
 1      125
 1      126
 1      127
 1      128
 1      129
 1      130
 1      131
 1      132
 1      133
 1      134
 1      135
 1      136
 1      137
 1      138
 1      139
 1      140
 1      141
 1      142
 1      143
 1      144
 1      145
 1      146
 1      147
 1      148
 1      149
 1      150
 1      151
 1      152
 1      153
 1      154
 1      155
 1      156
 1      157
 1      158
 1      159
 1      160
 1      161
 1      162
 1      163
 1      164
 1      165
 1      166
 1      167
 1      168
 1      169
 1      170
 1      171
 1      172
 1      173
 1      174
 1      175
 1      176
 1      177
 1      178
 1      179
 1      180
 1      181
 1      182
 1      183
 1      184
 1      185
 1      186
 1      187
 1      188
 1      189
 1      190
 1      191
 1      192
 1      193
 1      194
 1      195
 1      196
 1      197
 1      198
 1      199
 1      200
 1      201
 1      202
 1      203
 1      204
 1      205
 1      206
 1      207
 1      208
 1      209
 1      210
 1      211
 1      212
 1      213
 1      214
 1      215
 1      216
 1      217
 1      218
 1      219
 1      220
 1      221
 1      222
 1      223
 1      224
 1      225
 1      226
 1      227
 1      228
 1      229
 1      230
 1      231
 1      232
 1      233
 1      234
 1      235
 1      236
 1      237
 1      238
 1      239
 1      240
 1      241
 1      242
 1      243
 1      244
 1      245
 1      246
 1      247
 1      248
 1      249
 1      250
 1      251
 1      252
 1      253
 1      254
 1      255
 1      256
 1      257
 1      258
 1      259
 1      260
 1      261
 1      262
 1      263
 1      264
 1      265
 1      266
 1      267
 1      268
 1      269
 1      270
 1      271
 1      272
 1      273
 1      274
 1      275
 1      276
 1      277
 1      278
 1      279
 1      280
 1      281
 1      282
 1      283
 1      284
 1      285
 1      286
 1      287
POINT_DATA      288
SCALARS hemisphere int 1
LOOKUP_TABLE default
 1
 1
 1
 1
 1
 1
 1
 1
 1
 1
 1
 1
 1
 1
 1
 1
 1
 1
 1
 1
 1
 1
 1
 1
 1
 1
 1
 1
 1
 1
 1
 1
 1
 1
 1
 1
 1
 1
 1
 1
 1
 1
 1
 1
 1
 1
 1
 1
 1
 1
 1
 1
 1
 1
 1
 1
 1
 1
 1
 1
 1
 1
 1
 1
 1
 1
 1
 1
 1
 1
 1
 1
 1
 1
 1
 1
 1
 1
 1
 1
 1
 1
 1
 1
 1
 1
 1
 1
 1
 1
 1
 1
 1
 1
 1
 1
 1
 1
 1
 1
 1
 1
 1
 1
 1
 1
 1
 1
 1
 1
 1
 1
 1
 1
 1
 1
 1
 1
 1
 1
 1
 1
 1
 1
 1
 1
 1
 1
 1
 1
 1
 1
 1
 1
 1
 1
 1
 1
 1
 1
 1
 1
 1
 1
-1
-1
-1
-1
-1
-1
-1
-1
-1
-1
-1
-1
-1
-1
-1
-1
-1
-1
-1
-1
-1
-1
-1
-1
-1
-1
-1
-1
-1
-1
-1
-1
-1
-1
-1
-1
-1
-1
-1
-1
-1
-1
-1
-1
-1
-1
-1
-1
-1
-1
-1
-1
-1
-1
-1
-1
-1
-1
-1
-1
-1
-1
-1
-1
-1
-1
-1
-1
-1
-1
-1
-1
-1
-1
-1
-1
-1
-1
-1
-1
-1
-1
-1
-1
-1
-1
-1
-1
-1
-1
-1
-1
-1
-1
-1
-1
-1
-1
-1
-1
-1
-1
-1
-1
-1
-1
-1
-1
-1
-1
-1
-1
-1
-1
-1
-1
-1
-1
-1
-1
-1
-1
-1
-1
-1
-1
-1
-1
-1
-1
-1
-1
-1
-1
-1
-1
-1
-1
-1
-1
-1
-1
-1
-1
