<?xml version="1.0"?>
<VTKFile type="StructuredGrid" version="0.1" byte_order="LittleEndian" header_type="UInt32" compressor="vtkZLibDataCompressor">
  <StructuredGrid WholeExtent="0 60 0 20 0 20">
  <Piece Extent="0 60 0 20 0 20">
    <PointData Vectors="B_total">
      <DataArray type="Float32" Name="B_total" NumberOfComponents="3" format="ascii" RangeMin="0" RangeMax="58662.97932143127">
        -9.064486 -1.0846599 3.2805924 -9.380009 -1.1149677 3.364657
        -9.705084 -1.1469815 3.449311 -10.04002 -1.180908 3.5343342
        -10.385172 -1.216983 3.6194818 -10.740942 -1.2554743 3.7044806
        -11.107791 -1.2966857 3.7890244 -11.48624 -1.340961 3.8727689
        -11.876888 -1.3886888 3.9553246 -12.280409 -1.4403083 4.0362506
        -12.697564 -1.4963138 4.1150436 -13.129207 -1.557262 4.191127
        -13.576289 -1.6237786 4.2638407 -14.039864 -1.6965661 4.332426
        -14.521078 -1.7764113 4.3960123 -15.021182 -1.8641958 4.4536
        -15.541511 -1.9609046 4.5040474 -16.08348 -2.0676382 4.546057
        -16.648567 -2.1856246 4.5781617 -17.238297 -2.3162339 4.598715
        -17.854206 -2.4609935 4.605887 -18.497835 -2.6216087 4.597664
        -19.170683 -2.7999854 4.571845 -19.874186 -2.998257 4.5260553
        -20.609684 -3.218819 4.4577484 -21.37838 -3.464367 4.3642144
        -22.181303 -3.7379534 4.242587 -23.019236 -4.0430326 4.0898414
        -23.892632 -4.383529 3.9027994 -24.80149 -4.763911 3.678146
        -25.745188 -5.1892543 3.412467 -26.72227 -5.6653304 3.1023428
        -27.73021 -6.19867 2.7444947 -28.76514 -6.79663 2.3360155
        -29.821619 -7.4674425 1.8746741 -30.892408 -8.220219 1.3592525
        -31.96829 -9.064869 0.78988415 -33.037876 -10.011852 0.16833007
        -34.08735 -11.071659 -0.50183535 -35.10002 -12.253828 -1.215095
        -36.05577 -13.565329 -1.9637666 -36.930313 -15.008121 -2.737435
        -37.69493 -16.575874 -3.5217202 -38.31722 -18.250004 -4.2961698
        -38.76403 -19.995804 -5.03149 -39.00733 -21.759705 -5.6868954
        -39.033073 -23.469267 -6.2088633 -38.851868 -25.037373 -6.532872
        -38.50856 -26.37133 -6.589002 -38.08723 -27.386024 -6.311121
        -36.034782 -26.777128 -5.3715014 -0.094486654 -0.13244152 0.5499153
        -0.10403597 -0.15991592 0.53550386 -0.10595226 -0.18913555 0.521019
        -0.10108614 -0.217412 0.508019 -0.091125965 -0.24270153 0.49756622
        -0.07810688 -0.2637806 0.4901204 -0.06392813 -0.28026676 0.48559928
        -0.05009222 -0.29237938 0.4835651 -0.037581444 -0.3007264 0.48341656
        -0.026908875 -0.30605888 0.48454368 -9.11524 -1.0143845 3.289187
        -9.433295 -1.0424801 3.372286 -9.761135 -1.0721858 3.4558556
        -10.099099 -1.1036948 3.5396717 -10.447575 -1.1372266 3.6234844
        -10.806999 -1.173031 3.7070158 -11.177876 -1.2113907 3.789954
        -11.560774 -1.252627 3.871949 -11.956343 -1.2971023 3.9526038
        -12.365314 -1.3452269 4.031469 -12.788517 -1.3974636 4.1080284
        -13.226878 -1.4543341 4.1816936 -13.681432 -1.5164266 4.251785
        -14.153323 -1.5844021 4.31752 -14.643803 -1.6590042 4.377999
        -15.154234 -1.7410676 4.4321847 -15.686083 -1.8315291 4.4788895
        -16.240904 -1.9314395 4.516757 -16.820337 -2.0419762 4.5442495
        -17.42608 -2.16446 4.559635 -18.059874 -2.3003724 4.5609803
        -18.723475 -2.4513786 4.5461445 -19.418636 -2.6193511 4.51278
        -20.147083 -2.806407 4.458333 -20.910479 -3.0149422 4.3800435
        -21.710402 -3.247682 4.2749424 -22.54832 -3.5077453 4.139848
        -23.42552 -3.7987058 3.9713507 -24.343027 -4.1246786 3.7657957
        -25.301497 -4.490416 3.5192823 -26.301048 -4.9014125 3.227675
        -27.34105 -5.3640223 2.8866634 -28.419872 -5.8855963 2.491886
        -29.534624 -6.474617 2.0391154 -30.680864 -7.140842 1.5245048
        -31.85234 -7.895419 0.9448561 -33.04067 -8.750925 0.29786563
        -34.234947 -9.721248 -0.41771805 -35.42108 -10.821122 -1.2019889
        -36.58079 -12.065125 -2.0537682 -37.69017 -13.465839 -2.9702017
        -38.717968 -15.030857 -3.9456499 -39.624256 -16.758497 -4.969381
        -40.360596 -18.632336 -6.0217657 -40.87329 -20.615295 -7.0692797
        -41.11132 -22.644867 -8.059494 -41.03916 -24.631535 -8.918211
        -40.65317 -26.463028 -9.551275 -39.997303 -28.015957 -9.853081
        -39.172085 -29.174158 -9.721257 -38.331596 -29.849941 -9.074725
        -37.666412 -30.001995 -7.8693576 -0.13692832 -0.13726807 0.5729675
        -0.13901281 -0.17475319 0.549253 -0.1314516 -0.21043587 0.5277376
        -0.11693382 -0.2415762 0.5102544 -0.09854841 -0.26675034 0.4975214
        -0.07907009 -0.28568554 0.48938394 -0.060566902 -0.29892445 0.48511648
        -0.04428053 -0.30746603 0.4837445 -0.03075838 -0.3124156 0.48431635
        -9.16454 -0.9411806 3.2987235 -9.485018 -0.96678615 3.3809738
        -9.815497 -0.9938817 3.4635859 -10.156343 -1.0226442 3.5463305
        -10.507973 -1.0532746 3.6289525 -10.870859 -1.0860022 3.7111695
        -11.245542 -1.1210864 3.7926645 -11.632636 -1.1588209 3.87308
        -12.032836 -1.1995395 3.9520128 -12.44693 -1.2436187 4.029002
        -12.87581 -1.2914848 4.103523 -13.32047 -1.3436188 4.174969
        -13.782024 -1.4005637 4.242644 -14.261703 -1.4629321 4.3057413
        -14.760857 -1.5314139 4.363331 -15.280958 -1.6067866 4.4143386
        -15.823596 -1.6899251 4.457529 -16.390467 -1.7818147 4.4914894
        -16.98336 -1.8835645 4.51461 -17.604153 -1.9964242 4.5250726
        -18.254782 -2.1218033 4.520841 -18.93723 -2.2612953 4.49965
        -19.653507 -2.4167056 4.4590015 -20.405636 -2.5900881 4.396162
        -21.195618 -2.7837882 4.3081512 -22.02545 -3.0005019 4.19174
        -22.897062 -3.2433376 4.043418 -23.812294 -3.515901 3.8593721
        -24.772827 -3.8223958 3.635449 -25.78008 -4.1677375 3.3671217
        -26.83505 -4.5576944 3.0494702 -27.938137 -4.9990535 2.6772113
        -29.088877 -5.499809 2.24476 -30.285702 -6.069386 1.7463586
        -31.525663 -6.7188945 1.1762348 -32.8041 -7.4613724 0.52874136
        -34.114254 -8.312002 -0.20156372 -35.446594 -9.288153 -1.0199479
        -36.787746 -10.409095 -1.9316077 -38.11877 -11.695086 -2.94165
        -39.412594 -13.165422 -4.0545716 -40.630863 -14.835011 -5.27254
        -41.72101 -16.709087 -6.5917654 -42.61513 -18.776028 -7.9963694
        -43.233147 -20.998955 -9.4500885 -43.492702 -23.307968 -10.887518
        -43.327152 -25.595955 -12.208154 -42.70996 -27.722216 -13.27758
        -41.679707 -29.52652 -13.939514 -40.35615 -30.854029 -14.039054
        -38.937893 -31.58582 -13.452438 -37.677315 -31.665564 -12.113552
        -29.825626 -25.183834 -7.9892898 -0.1804452 -0.16753578 0.5876074
        -0.16862822 -0.21094894 0.553751 -0.14755249 -0.24770832 0.52627707
        -0.12184334 -0.2762537 0.5062704 -0.095469475 -0.29663658 0.49337387
        -0.07115555 -0.3099327 0.48630786 -0.05039215 -0.31765747 0.4835186
        -0.033665657 -0.32135248 0.48354125 -9.211285 -0.865424 3.309038
        -9.534028 -0.8882946 3.3905656 -9.866966 -0.9125129 3.472356
        -10.210494 -0.93823797 3.5541751 -10.565052 -0.9656506 3.6357648
        -10.931146 -0.99495625 3.7168365 -11.309351 -1.0263882 3.7970672
        -11.700317 -1.060211 3.8760943 -12.104788 -1.0967244 3.9535062
        -12.523602 -1.1362681 4.0288343 -12.957703 -1.1792265 4.1015396
        -13.408153 -1.2260344 4.1710043 -13.876136 -1.2771834 4.236512
        -14.362964 -1.333229 4.297234 -14.870081 -1.3947988 4.35221
        -15.399061 -1.4626015 4.4003305 -15.951611 -1.5374376 4.440315
        -16.529554 -1.6202114 4.4706936 -17.134836 -1.7119443 4.489789
        -17.769497 -1.8137933 4.495701 -18.435665 -1.9270686 4.486292
        -19.135546 -2.05326 4.459175 -19.871408 -2.194066 4.4117074
        -20.645569 -2.3514318 4.340978 -21.460384 -2.5275958 4.2437935
        -22.318264 -2.72515 4.1166596 -23.221636 -2.9471126 3.955742
        -24.172928 -3.1970181 3.756821 -25.174528 -3.4790297 3.515231
        -26.228691 -3.7980762 3.2257984 -27.337423 -4.160018 2.882787
        -28.502302 -4.571851 2.4798691 -29.724287 -5.041955 2.010137
        -31.003479 -5.580402 1.46613 -32.338882 -6.1993093 0.8398642
        -33.728073 -6.9132447 0.12279916 -35.16673 -7.739627 -0.6943381
        -36.64776 -8.699004 -1.621886 -38.15975 -9.815021 -2.6716886
        -39.684418 -11.11372 -3.8573546 -41.192696 -12.621697 -5.193746
        -42.6397 -14.362429 -6.694718 -43.959484 -16.350159 -8.367903
        -45.061726 -18.581013 -10.20566 -45.83387 -21.02174 -12.172167
        -46.152733 -23.59811 -14.188902 -45.908463 -26.187037 -16.12323
        -45.03984 -28.618063 -17.787361 -43.573 -30.68961 -18.954472
        -41.64909 -32.201447 -19.394257 -39.524376 -32.996998 -18.920982
        -37.534603 -33.0019 -17.437824 -36.031174 -32.242706 -14.958883
        -8.38895 -7.3054733 -2.2097044 -0.21200275 -0.22446823 0.58469296
        -0.1818409 -0.26519394 0.5439844 -0.1465826 -0.29514217 0.5147867
        -0.11163616 -0.3149767 0.49618006 -0.080498695 -0.326499 0.486063
        -0.054759026 -0.33188534 0.48195457 -0.03470421 -0.33312988 0.48166776
        -9.254362 -0.7874391 3.3197248 -9.5791645 -0.80736244 3.4006553
        -9.914337 -0.82847244 3.4817615 -10.260293 -0.85090834 3.5628052
        -10.617501 -0.8748286 3.6435242 -10.986492 -0.90041316 3.723625
        -11.367872 -0.9278667 3.8027802 -11.762327 -0.95742136 3.8806207
        -12.170639 -0.98934025 3.956728 -12.593692 -1.0239221 4.0306244
        -13.032481 -1.0615048 4.1017613 -13.488126 -1.1024722 4.1695065
        -13.961876 -1.1472577 4.2331266 -14.455114 -1.1963527 4.2917714
        -14.969372 -1.2503138 4.3444543 -15.506313 -1.3097705 4.390031
        -16.067755 -1.3754361 4.427178 -16.65564 -1.4481184 4.4543757
        -17.272053 -1.5287342 4.4698825 -17.91919 -1.6183246 4.47172
        -18.599363 -1.7180743 4.457657 -19.314991 -1.8293374 4.4251943
        -20.06858 -1.9536654 4.371551 -20.862745 -2.092846 4.2936482
        -21.700186 -2.2489507 4.1880903 -22.583723 -2.4243944 4.0511293
        -23.516281 -2.6220121 3.8786168 -24.500889 -2.8451526 3.6659362
        -25.540663 -3.0977979 3.4079185 -26.638744 -3.3847117 3.098748
        -27.79821 -3.7116237 2.731861 -29.021954 -4.0854654 2.2998667
        -30.31252 -4.5146623 1.7944707 -31.671963 -5.0095057 1.206393
        -33.101643 -5.5826135 0.5252365 -34.60195 -6.249467 -0.2608025
        -36.17181 -7.029006 -1.1654216 -37.80763 -7.944165 -2.2049978
        -39.501335 -9.022157 -3.3995245 -41.23691 -10.294117 -4.7733684
        -42.98499 -11.793554 -6.355 -44.695526 -13.552752 -8.174364
        -46.28946 -15.596182 -10.256072 -47.652153 -17.930185 -12.606798
        -48.63314 -20.528894 -15.196369 -49.0586 -23.31847 -17.934935
        -48.761745 -26.164227 -20.652813 -47.63197 -28.86866 -23.094303
        -45.672897 -31.188622 -24.937717 -43.047714 -32.875565 -25.847734
        -40.08498 -33.731686 -25.550852 -37.22917 -33.66272 -23.907375
        -34.94649 -32.70432 -20.947779 -33.622063 -31.009075 -16.85539
        -0.25914574 -0.2573681 0.61637306 -0.21703815 -0.2983303 0.55964184
        -0.17000675 -0.32603264 0.52001476 -0.12515163 -0.34209728 0.4955654
        -0.08657932 -0.349226 0.48278332 -0.055840492 -0.35027027 0.47797108
        -0.032756805 -0.3476224 0.47799325 -9.292718 -0.707518 3.3302338
        -9.619332 -0.7243144 3.4106874 -9.95647 -0.7421203 3.4912415
        -10.304557 -0.76105404 3.5716562 -10.664087 -0.78124976 3.6516635
        -11.035613 -0.8028604 3.7309675 -11.419768 -0.82605946 3.8092356
        -11.81727 -0.8510445 3.8860936 -12.228934 -0.878039 3.9611166
        -12.655683 -0.90729725 4.033819 -13.098557 -0.93910736 4.1036434
        -13.558726 -0.97379637 4.169945 -14.037495 -1.011735 4.231974
        -14.536315 -1.0533438 4.288863 -15.056785 -1.0990996 4.3396
        -15.60066 -1.1495439 4.3830104 -16.169846 -1.2052909 4.4177346
        -16.766396 -1.2670383 4.4422045 -17.392519 -1.3355807 4.4546223
        -18.050554 -1.4118228 4.452942 -18.742981 -1.4967992 4.434846
        -19.472404 -1.5916958 4.3977337 -20.24157 -1.6978794 4.3387003
        -21.05335 -1.8169324 4.2545156 -21.910776 -1.9506999 4.1415954
        -22.81706 -2.1013443 3.995961 -23.7756 -2.2714238 3.8131707
        -24.790018 -2.4639816 3.588238 -25.86414 -2.6826677 3.315519
        -27.00199 -2.9318864 2.9885824 -28.207737 -3.216991 2.6000702
        -29.485624 -3.5445292 2.1415467 -30.839895 -3.9225626 1.6033354
        -32.27471 -4.3610816 0.97431445 -33.794056 -4.872525 0.24156702
        -35.401566 -5.4724298 -0.61016953 -37.10004 -6.1801767 -1.5994205
        -38.890327 -7.0197644 -2.749303 -40.76895 -8.020395 -4.08915
        -42.72386 -9.216568 -5.656007 -44.72739 -10.646955 -7.494924
        -46.726383 -12.351229 -9.656272 -48.630142 -14.363506 -12.18751
        -50.29938 -16.701256 -15.116726 -51.542126 -19.349117 -18.426422
        -52.12542 -22.239195 -22.019642 -51.812057 -25.232975 -25.68705
        -50.426014 -28.114498 -29.091343 -47.935837 -30.606754 -31.789877
        -44.525284 -32.418278 -33.308414 -40.60925 -33.31295 -33.254955
        -36.767384 -33.1779 -31.432096 -33.609245 -32.058205 -27.894892
        -31.626518 -30.139677 -22.922882 -21.48113 -19.14173 -11.438094
        -0.24830914 -0.35011864 0.5669327 -0.18790817 -0.3701601 0.5174017
        -0.13261223 -0.3781271 0.4883995 -0.086894035 -0.37767124 0.47447205
        -0.051846504 -0.3721466 0.47032547 -0.026608467 -0.36413527 0.47176838
        -9.325415 -0.6259427 3.3399696 -9.653559 -0.63946426 3.4200559
        -9.99235 -0.6538052 3.5001824 -10.342234 -0.6690614 3.5801048
        -10.703717 -0.6853419 3.6595533 -11.077374 -0.7027707 3.7382274
        -11.463861 -0.7214888 3.8157916 -11.863918 -0.7416564 3.891867
        -12.278394 -0.7634555 3.966023 -12.70824 -0.787093 4.0377684
        -13.154534 -0.81280345 4.1065364 -13.618491 -0.8408537 4.1716723
        -14.101462 -0.87154645 4.232415 -14.604954 -0.9052257 4.287878
        -15.130628 -0.9422822 4.3370304 -15.680307 -0.98316026 4.378672
        -16.25598 -1.028365 4.4114103 -16.859797 -1.0784723 4.433638
        -17.494064 -1.1341381 4.4435105 -18.161253 -1.1961132 4.4389195
        -18.863983 -1.2652582 4.417478 -19.60503 -1.3425633 4.376496
        -20.387337 -1.4291744 4.3129625 -21.214022 -1.526424 4.223514
        -22.0884 -1.6358744 4.104405 -23.014044 -1.7593645 3.9514532
        -23.994783 -1.899084 3.7599578 -25.034773 -2.0576546 3.5246034
        -26.13851 -2.2382414 3.2393184 -27.310844 -2.444694 2.8971162
        -28.556984 -2.6817312 2.4899106 -29.88249 -2.95518 2.0082965
        -31.293264 -3.2722921 1.441302 -32.79559 -3.642159 0.7760318
        -34.39616 -4.076255 -0.0028789043 -36.102013 -4.589118 -0.9141425
        -37.920166 -5.1991844 -1.9811847 -39.856453 -5.929694 -3.2341144
        -41.91294 -6.8095455 -4.7121716 -44.08289 -7.873742 -6.4661846
        -46.342285 -9.162832 -8.559745 -48.637203 -10.720366 -11.066879
        -50.86781 -12.586987 -14.062801 -52.871834 -14.789534 -17.603622
        -54.41514 -17.324127 -21.692135 -55.20084 -20.13409 -26.230644
        -54.91118 -23.087624 -30.971096 -53.290764 -25.966085 -35.485382
        -50.260277 -28.477455 -39.187702 -46.020103 -30.305893 -41.43333
        -41.0816 -31.191034 -41.681583 -36.181587 -31.008274 -39.662853
        -32.09664 -29.809845 -35.465034 -29.439287 -27.80417 -29.491135
        -28.52929 -25.28538 -22.31274 -0.2688675 -0.41996288 0.55735016
        -0.19495201 -0.42580605 0.50139046 -0.13014793 -0.42097664 0.47126293
        -0.078775406 -0.40979385 0.4591055 -0.041100502 -0.39574957 0.45788383
        -0.015246391 -0.3812499 0.46236658 -9.351666 -0.54300356 3.3483703
        -9.681028 -0.5531332 3.4281888 -10.021136 -0.563882 3.5080001
        -10.372448 -0.57532245 3.5875578 -10.735482 -0.58753717 3.666589
        -11.110831 -0.60062015 3.7447915 -11.499166 -0.6146783 3.821826
        -11.901252 -0.62983334 3.89731 -12.317952 -0.64622325 3.9708097
        -12.750252 -0.6640053 4.0418277 -13.199257 -0.683358 4.109791
        -13.666212 -0.7044845 4.174037 -14.15251 -0.72761565 4.2337933
        -14.659698 -0.7530141 4.2881618 -15.189492 -0.7809787 4.336094
        -15.743769 -0.81184965 4.3763695 -16.324581 -0.8460148 4.407571
        -16.934156 -0.88391674 4.4280586 -17.574888 -0.9260615 4.4359484
        -18.249346 -0.97302896 4.4290857 -18.960266 -1.0254861 4.405025
        -19.710567 -1.084203 4.3610053 -20.503353 -1.1500738 4.293928
        -21.341944 -1.2241435 4.2003236 -22.229906 -1.3076373 4.076315
        -23.1711 -1.4020113 3.9175491 -24.169731 -1.5090027 3.7191124
        -25.230408 -1.6307044 3.4754148 -26.358198 -1.7696568 3.180027
        -27.558683 -1.9289699 2.8254948 -28.837986 -2.1124816 2.4031062
        -30.202833 -2.3249683 1.9026234 -31.66064 -2.5724256 1.31194
        -33.219643 -2.862441 0.6165908 -34.889046 -3.2046895 -0.20099688
        -36.679153 -3.611576 -1.1626866 -38.60107 -4.0990267 -2.296471
        -40.665665 -4.687414 -3.6390738 -42.880775 -5.4024887 -5.2392926
        -45.245667 -6.276063 -7.161515 -47.741222 -7.34591 -9.488029
        -50.314926 -8.653998 -12.317415 -52.86071 -10.241686 -15.754741
        -55.19693 -12.140193 -19.888075 -57.05047 -14.354902 -24.74627
        -58.06167 -16.843641 -30.237598 -57.829735 -19.493217 -36.080452
        -56.013046 -22.104399 -41.75529 -52.47567 -24.401207 -46.52354
        -47.428802 -26.07748 -49.551785 -41.482178 -26.877144 -50.131897
        -35.538662 -26.677517 -47.912533 -30.551517 -25.532467 -43.02073
        -27.257631 -23.649986 -36.001 -26.015839 -21.318512 -27.610126
        -0.28677368 -0.5119629 0.5110645 -0.18582153 -0.48698902 0.46696472
        -0.11430931 -0.46566963 0.44146252 -0.060207367 -0.44170475 0.43536282
        -0.022499084 -0.41818953 0.44004822 0.0018377304 -0.39686108 0.449553
        -9.370857 -0.45901155 3.3549628 -9.701105 -0.46566224 3.434603
        -10.042168 -0.47272435 3.5142019 -10.394514 -0.48024645 3.5935116
        -10.758673 -0.48828393 3.6722584 -11.135248 -0.49689972 3.7501366
        -11.524921 -0.5061657 3.8268058 -11.928473 -0.5161634 3.901881
        -12.346786 -0.5269858 3.9749253 -12.78086 -0.53873867 4.045437
        -13.231825 -0.55154234 4.1128387 -13.70095 -0.5655338 4.176462
        -14.189653 -0.580869 4.2355275 -14.699518 -0.5977256 4.289127
        -15.232291 -0.61630595 4.3361998 -15.789895 -0.6368412 4.3755107
        -16.37443 -0.6595947 4.4056244 -16.988176 -0.6848682 4.424877
        -17.633593 -0.71300715 4.431357 -18.313324 -0.7444086 4.422875
        -19.030191 -0.7795302 4.3969426 -19.787222 -0.8189023 4.3507466
        -20.587643 -0.8631421 4.2811246 -21.43492 -0.9129747 4.1845274
        -22.332813 -0.96925116 4.0569787 -23.285402 -1.0329887 3.894001
        -24.297176 -1.1054058 3.6905212 -25.3731 -1.1879762 3.440741
        -26.518688 -1.2824981 3.13796 -27.740086 -1.3911834 2.7743652
        -29.04414 -1.5167767 2.340766 -30.43851 -1.6627141 1.8262764
        -31.93183 -1.8333359 1.2178982 -33.533916 -2.034174 0.49991935
        -35.25608 -2.272336 -0.3470006 -37.111324 -2.5570078 -1.3472981
        -39.11426 -2.900093 -2.532726 -41.28011 -3.3169708 -3.9455354
        -43.62189 -3.8273084 -5.6426234 -46.144493 -4.455741 -7.7000537
        -48.833878 -5.2320266 -10.216519 -51.640095 -6.1899786 -13.312609
        -54.453667 -7.364117 -17.120949 -57.078445 -8.782499 -21.760294
        -59.209534 -10.454445 -27.286518 -60.43341 -12.352826 -33.618305
        -60.27486 -14.393905 -40.44882 -58.31189 -16.422945 -47.178463
        -54.352287 -18.219141 -52.927475 -48.612354 -19.532618 -56.68321
        -41.789448 -20.151875 -57.57544 -34.93906 -19.976048 -55.173843
        -29.176739 -19.051786 -49.644848 -25.350828 -17.552612 -41.67147
        -23.850756 -15.715822 -32.188244 -17.158165 -9.734692 -15.18708
        -0.15711403 -0.54334927 0.4120617 -0.08348465 -0.5045972 0.39852715
        -0.030662537 -0.46802473 0.40344238 0.003856659 -0.43572283 0.4172306
        0.02427864 -0.40844464 0.43373156 -9.38255 -0.37430203 3.3593967
        -9.713333 -0.3774163 3.4389389 -10.054974 -0.3807294 3.5184197
        -10.407947 -0.38426545 3.5975907 -10.772785 -0.38805208 3.6761758
        -11.1501 -0.39212066 3.7538698 -11.540584 -0.39650708 3.8303304
        -11.945023 -0.40125227 3.9051704 -12.364308 -0.4064029 3.9779515
        -12.799456 -0.41201207 4.0481706 -13.251605 -0.41814056 4.115247
        -13.72204 -0.4248575 4.1785073 -14.212197 -0.43224192 4.2371693
        -14.72368 -0.44038397 4.290318 -15.258254 -0.44938675 4.3368864
        -15.81787 -0.4593681 4.37563 -16.40466 -0.47046304 4.405101
        -17.02093 -0.4828264 4.423623 -17.669188 -0.49663633 4.4292665
        -18.352116 -0.51209813 4.4198213 -19.0726 -0.5294496 4.3927717
        -19.83372 -0.5489672 4.345274 -20.63879 -0.5709743 4.274126
        -21.491367 -0.5958535 4.175729 -22.395327 -0.6240528 4.0460463
        -23.354895 -0.6561134 3.880522 -24.374743 -0.69268566 3.6739836
        -25.46006 -0.7345598 3.4205015 -26.616648 -0.78270465 3.113206
        -27.851019 -0.83831763 2.7440548 -29.17049 -0.9028913 2.303551
        -30.583345 -0.9783029 1.7803935 -32.09901 -1.0669346 1.161002
        -33.72838 -1.1718357 0.42885423 -35.48415 -1.2969412 -0.43656874
        -37.38119 -1.4473593 -1.461412 -39.436516 -1.6297395 -2.6799564
        -41.668373 -1.8527157 -4.1382146 -44.093483 -2.1273937 -5.8986354
        -46.720818 -2.4677768 -8.045391 -49.54027 -2.890919 -10.688681
        -52.50433 -3.4164035 -13.964807 -55.50206 -4.0645437 -18.026417
        -58.328354 -4.85236 -23.015144 -60.657154 -5.7866 -29.007984
        -62.03766 -6.853492 -35.933617 -61.941616 -8.00676 -43.469738
        -59.88806 -9.158549 -50.960594 -55.641907 -10.181273 -57.423523
        -49.42069 -10.928637 -61.712093 -41.98415 -11.27603 -62.83402
        -34.499012 -11.165049 -60.29947 -28.19897 -10.625506 -54.305717
        -24.011934 -9.759888 -45.641228 -22.346714 -8.707469 -35.373783
        -23.108526 -7.601686 -24.506884 -0.10935783 -0.5822301 0.33989716
        -0.03908539 -0.5291538 0.34539413 0.008131027 -0.48303533 0.36567688
        0.036333084 -0.44463623 0.39111614 0.050668716 -0.41359174 0.41606617
        -9.386484 -0.28923136 3.3614576 -9.717443 -0.28878084 3.440977
        -10.059277 -0.2883142 3.520429 -10.412456 -0.28783086 3.5995636
        -10.77752 -0.28733033 3.678106 -11.15508 -0.28681222 3.7557495
        -11.545832 -0.28627616 3.8321514 -11.950564 -0.28572187 3.9069252
        -12.370173 -0.2851492 3.9796305 -12.805676 -0.28455824 4.0497637
        -13.258218 -0.28394926 4.1167436 -13.729088 -0.2833228 4.1798964
        -14.21973 -0.2826799 4.2384367 -14.731749 -0.282022 4.2914486
        -15.266925 -0.28135124 4.3378625 -15.827213 -0.2806705 4.3764305
        -16.414755 -0.2799838 4.405701 -17.031874 -0.2792965 4.4239936
        -17.681084 -0.27861562 4.4293723 -18.365088 -0.27795047 4.419619
        -19.086788 -0.277313 4.3922105 -19.849295 -0.27671885 4.3442907
        -20.655943 -0.27618825 4.272645 -21.51033 -0.2757493 4.1736565
        -22.416368 -0.2754319 4.0432677 -23.378342 -0.27528098 3.8768945
        -24.400986 -0.2753522 3.6693301 -25.489574 -0.27571732 3.4145973
        -26.65002 -0.27646846 3.1057634 -27.888977 -0.2777243 2.734704
        -29.213945 -0.27963766 2.2918093 -30.633436 -0.28240508 1.7656192
        -32.157204 -0.28627956 1.1423388 -33.79655 -0.29158604 0.4051298
        -35.564735 -0.29874158 -0.46697795 -37.477356 -0.30827907 -1.500792
        -39.552372 -0.32087678 -2.731585 -41.80928 -0.33738953 -4.2068505
        -44.266243 -0.3588766 -5.9912286 -46.93396 -0.38661462 -8.172112
        -49.80394 -0.42206675 -10.864301 -52.82976 -0.46675473 -14.21041
        -55.90013 -0.52203786 -18.371208 -58.806557 -0.58863676 -23.497717
        -61.214733 -0.6660844 -29.67572 -62.65905 -0.7521213 -36.838337
        -62.589977 -0.84218615 -44.65751 -60.502586 -0.9290856 -52.454964
        -56.144264 -1.0030673 -59.20618 -49.73283 -1.0531142 -63.710033
        -42.053036 -1.0702482 -64.92406 -34.315388 -1.0524833 -62.334316
        -27.80471 -1.0045097 -56.15181 -23.478167 -0.93406487 -47.208576
        -21.752148 -0.85084987 -36.627136 -22.518171 -0.7648756 -25.457123
        -0.047929764 -0.59281635 0.25967407 0.01407814 -0.53243446 0.2885456
        0.052202225 -0.48242322 0.32644463 0.07179451 -0.44225782 0.36457253
        0.07864952 -0.4106555 0.39837027 -9.382572 -0.20416789 3.3610728
        -9.713348 -0.20015319 3.440643 -10.054982 -0.19590737 3.5201526
        -10.407947 -0.19140525 3.5993528 -10.772778 -0.18661833 3.6779685
        -11.150084 -0.18151428 3.7556937 -11.540558 -0.17605649 3.832186
        -11.944987 -0.17020355 3.907059 -12.364264 -0.16390854 3.9798737
        -12.7994 -0.15711837 4.050127 -13.251539 -0.14977288 4.1172385
        -13.721964 -0.14180408 4.180535 -14.212112 -0.13313486 4.239234
        -14.723584 -0.123678 4.2924204 -15.258152 -0.1133346 4.3390274
        -15.817761 -0.10199262 4.3778105 -16.404547 -0.08952503 4.407321
        -17.020819 -0.075787485 4.425884 -17.66908 -0.060615897 4.431567
        -18.352024 -0.04382315 4.422162 -19.072533 -0.025195403 4.3951516
        -19.833694 -0.0044869483 4.3476915 -20.638824 0.01858563 4.276578
        -21.49149 0.044349466 4.1782103 -22.395573 0.07319361 4.0485506
        -23.355316 0.10557073 3.8830383 -24.375404 0.14202163 3.676496
        -25.461054 0.183196 3.422986 -26.618093 0.22988182 3.1156259
        -27.85308 0.28304437 2.746358 -29.173391 0.34387806 2.3056567
        -30.587387 0.41387793 1.7821815 -32.104595 0.49493498 1.1622931
        -33.73605 0.58947104 0.42937887 -35.494648 0.70061886 -0.43721497
        -37.3955 0.83246636 -1.4638453 -39.455933 0.9903728 -2.685104
        -41.694626 1.1813596 -4.1474695 -44.12875 1.4145479 -5.9140873
        -46.767853 1.7015802 -8.070135 -49.602345 2.056843 -10.727243
        -52.585014 2.4972067 -14.023628 -55.604794 3.0406666 -18.11438
        -58.4554 3.7032108 -23.143843 -60.808067 4.492841 -29.191404
        -62.20733 5.4003625 -36.18667 -62.118492 6.388184 -43.805084
        -60.05381 7.3816347 -51.383766 -55.7738 8.270524 -57.927624
        -49.496906 8.927836 -62.27473 -41.9905 9.244349 -63.419334
        -34.433838 9.165438 -60.865963 -28.074955 8.71201 -54.817043
        -23.851183 7.9737625 -46.074078 -22.172125 7.072482 -35.72017
        -22.938555 6.123997 -24.771387 0.017967224 -0.5704999 0.18454361
        0.06866264 -0.51188636 0.23665428 0.09599686 -0.46482706 0.29127407
        0.10619354 -0.42788434 0.34105778 0.10531616 -0.39927804 0.38278723
        -9.370902 -0.11947992 3.3583136 -9.701136 -0.1119305 3.4380095
        -10.042184 -0.10393748 3.5176659 -10.394515 -0.09545131 3.5970345
        -10.758658 -0.086415626 3.6758416 -11.135215 -0.07676657 3.753782
        -11.524872 -0.06643167 3.830515 -11.928405 -0.055328745 3.9056556
        -12.346698 -0.043364603 3.9787667 -12.780751 -0.03043356 4.049347
        -13.231695 -0.016415816 4.11682 -13.7008 -0.0011755228 4.1805153
        -14.189484 0.015441407 4.2396545 -14.699329 0.033609778 4.2933292
        -15.232086 0.05352793 4.340479 -15.789678 0.075421095 4.3798685
        -16.374205 0.09954524 4.410061 -16.987951 0.12619159 4.4293942
        -17.633383 0.15569203 4.4359546 -18.31314 0.1884259 4.427552
        -19.030058 0.22482784 4.4016976 -19.787167 0.26539826 4.3555765
        -20.587706 0.310716 4.286024 -21.435154 0.36145297 4.189486
        -22.333288 0.41840354 4.061984 -23.286217 0.4825005 3.8990314
        -24.29846 0.5548583 3.6955462 -25.37503 0.63681775 3.445713
        -26.5215 0.7300068 3.14281 -27.744097 0.8364203 2.7789893
        -29.049774 0.95852643 2.3450096 -30.44635 1.099409 1.8299097
        -31.942654 1.2629623 1.2205769 -33.548767 1.4541521 0.5011285
        -35.276356 1.679374 -0.3480388 -37.138893 1.9469233 -1.351752
        -39.15158 2.2675996 -2.5423388 -41.33039 2.6554344 -3.9629388
        -43.689224 3.128488 -5.6717143 -46.233932 3.7095544 -7.7465906
        -48.951378 4.4264216 -10.288841 -51.792084 5.311069 -13.422508
        -54.64615 6.3967447 -17.284527 -57.315117 7.711502 -21.998333
        -59.489006 9.266662 -27.623814 -60.745766 11.039709 -34.080902
        -60.598686 12.954294 -41.05834 -58.613815 14.865595 -47.94361
        -54.591465 16.564732 -53.83522 -48.749928 17.8141 -57.693665
        -41.80046 18.4114 -58.62574 -34.821472 18.25787 -56.1916
        -28.952858 17.395124 -50.5662 -25.058817 15.987918 -42.45485
        -23.531494 14.262199 -32.818558 -16.86095 8.453225 -15.643044
        0.07815361 -0.5189934 0.12733269 0.11698914 -0.47047424 0.19791222
        0.13389778 -0.43246984 0.2653246 0.13552475 -0.4031086 0.32375336
        0.12786102 -0.3805666 0.3712821 -9.351734 -0.03552374 3.3533921
        -9.681077 -0.024498206 3.4332943 -10.021163 -0.012821574 3.5131915
        -10.372451 -0.00042028772 3.592837 -10.735461 0.012789195 3.671959
        -11.110785 0.02690173 3.7502542 -11.499093 0.042024918 3.827384
        -11.90115 0.05828086 3.9029658 -12.317822 0.07580806 3.9765656
        -12.75009 0.094763555 4.047686 -13.199064 0.11532549 4.115755
        -13.665989 0.13769582 4.180109 -14.152257 0.16210364 4.2399755
        -14.659418 0.18880883 4.294457 -15.189186 0.21810634 4.342504
        -15.743444 0.25033092 4.3828964 -16.324245 0.28586307 4.4142165
        -16.93382 0.32513544 4.434824 -17.574572 0.36864114 4.442834
        -18.249065 0.4169433 4.436091 -18.960056 0.47068697 4.412147
        -19.71047 0.5306141 4.36824 -20.503426 0.5975824 4.3012667
        -21.342264 0.67258763 4.207752 -22.230576 0.7568021 4.083815
        -23.17226 0.8516036 3.9250898 -24.171564 0.9586342 3.7266498
        -25.233168 1.0798652 3.4828815 -26.36222 1.2176839 3.1873245
        -27.564419 1.3750064 2.8324742 -28.846043 1.5554278 2.4095507
        -30.214025 1.7634188 1.9082087 -31.676054 2.0045936 1.3161825