# vtk DataFile Version 3.0
SM polar seed points transformed to GSW coordinates
ASCII
DATASET POLYDATA
POINTS      288 float
       0.895251       0.000000       1.203547
       0.869867       0.194114       1.206504
       0.795445       0.375000       1.215172
       0.677056       0.530330       1.228961
       0.522769       0.649519       1.246931
       0.343098       0.724444       1.267858
       0.150287       0.750000       1.290315
      -0.042524       0.724444       1.312773
      -0.222195       0.649519       1.333700
      -0.376482       0.530330       1.351670
      -0.494870       0.375000       1.365459
      -0.569293       0.194114       1.374127
      -0.594677      -0.000000       1.377084
      -0.569293      -0.194114       1.374127
      -0.494870      -0.375000       1.365459
      -0.376482      -0.530330       1.351670
      -0.222195      -0.649519       1.333700
      -0.042524      -0.724444       1.312773
       0.150287      -0.750000       1.290315
       0.343098      -0.724444       1.267858
       0.522769      -0.649519       1.246931
       0.677056      -0.530330       1.228961
       0.795445      -0.375000       1.215172
       0.869867      -0.194114       1.206504
       0.786948       0.000000       1.276993
       0.765493       0.164072       1.279492
       0.702588       0.316964       1.286819
       0.602522       0.448254       1.298474
       0.472113       0.548997       1.313663
       0.320248       0.612327       1.331352
       0.157278       0.633927       1.350333
      -0.005693       0.612327       1.369315
      -0.157558       0.548997       1.387003
      -0.287967       0.448254       1.402192
      -0.388033       0.316964       1.413847
      -0.450938       0.164073       1.421174
      -0.472393      -0.000000       1.423673
      -0.450938      -0.164073       1.421174
      -0.388033      -0.316964       1.413847
      -0.287967      -0.448254       1.402192
      -0.157558      -0.548997       1.387003
      -0.005693      -0.612327       1.369315
       0.157278      -0.633927       1.350333
       0.320248      -0.612327       1.331352
       0.472113      -0.548997       1.313663
       0.602522      -0.448254       1.298474
       0.702588      -0.316964       1.286819
       0.765493      -0.164073       1.279492
       0.672657       0.000000       1.340721
       0.655293       0.132782       1.342744
       0.604385       0.256515       1.348673
       0.523402       0.362767       1.358105
       0.417864       0.444297       1.370398
       0.294962       0.495549       1.384713
       0.163071       0.513030       1.400074
       0.031181       0.495549       1.415436
      -0.091722       0.444297       1.429751
      -0.197260       0.362767       1.442043
      -0.278243       0.256515       1.451476
      -0.329150       0.132782       1.457405
      -0.346514      -0.000000       1.459427
      -0.329150      -0.132782       1.457405
      -0.278243      -0.256515       1.451476
      -0.197260      -0.362767       1.442043
      -0.091721      -0.444297       1.429751
       0.031181      -0.495549       1.415436
       0.163071      -0.513030       1.400074
       0.294962      -0.495549       1.384713
       0.417864      -0.444297       1.370398
       0.523402      -0.362767       1.358105
       0.604385      -0.256515       1.348673
       0.655293      -0.132782       1.342744
       0.553245       0.000000       1.394245
       0.540106       0.100481       1.395776
       0.501582       0.194114       1.400263
       0.440299       0.274519       1.407400
       0.360434       0.336216       1.416703
       0.267430       0.375000       1.427535
       0.167624       0.388229       1.439160
       0.067817       0.375000       1.450785
      -0.025187       0.336216       1.461617
      -0.105052       0.274519       1.470919
      -0.166335       0.194114       1.478057
      -0.204858       0.100481       1.482544
      -0.217998      -0.000000       1.484074
      -0.204858      -0.100481       1.482544
      -0.166335      -0.194114       1.478057
      -0.105052      -0.274519       1.470919
      -0.025187      -0.336216       1.461617
       0.067817      -0.375000       1.450785
       0.167624      -0.388229       1.439160
       0.267430      -0.375000       1.427535
       0.360434      -0.336216       1.416703
       0.440299      -0.274519       1.407400
       0.501582      -0.194114       1.400263
       0.540106      -0.100481       1.395776
       0.429624       0.000000       1.437158
       0.420808       0.067415       1.438185
       0.394961       0.130236       1.441195
       0.353845       0.184182       1.445984
       0.300262       0.225576       1.452225
       0.237863       0.251597       1.459493
       0.170900       0.260472       1.467292
       0.103938       0.251597       1.475092
       0.041539       0.225576       1.482360
      -0.012045       0.184182       1.488601
      -0.053161       0.130236       1.493390
      -0.079007       0.067415       1.496400
      -0.087823      -0.000000       1.497427
      -0.079007      -0.067415       1.496400
      -0.053161      -0.130236       1.493390
      -0.012045      -0.184182       1.488601
       0.041539      -0.225576       1.482360
       0.103938      -0.251597       1.475092
       0.170900      -0.260472       1.467292
       0.237863      -0.251597       1.459493
       0.300262      -0.225576       1.452225
       0.353845      -0.184182       1.445984
       0.394961      -0.130236       1.441195
       0.420808      -0.067415       1.438185
       0.302732       0.000000       1.469133
       0.298307       0.033836       1.469649
       0.285335       0.065367       1.471160
       0.264698       0.092443       1.473563
       0.237804       0.113219       1.476696
       0.206485       0.126279       1.480344
       0.172876       0.130734       1.484258
       0.139267       0.126279       1.488173
       0.107948       0.113219       1.491821
       0.081054       0.092443       1.494953
       0.060418       0.065367       1.497357
       0.047445       0.033836       1.498868
       0.043020      -0.000000       1.499383
       0.047445      -0.033836       1.498868
       0.060418      -0.065367       1.497357
       0.081054      -0.092443       1.494953
       0.107948      -0.113219       1.491821
       0.139267      -0.126279       1.488173
       0.172876      -0.130734       1.484258
       0.206485      -0.126279       1.480344
       0.237804      -0.113219       1.476696
       0.264698      -0.092443       1.473563
       0.285335      -0.065367       1.471160
       0.298307      -0.033836       1.469649
       0.594677       0.000000      -1.377084
       0.569293       0.194114      -1.374127
       0.494870       0.375000      -1.365459
       0.376482       0.530330      -1.351670
       0.222195       0.649519      -1.333700
       0.042524       0.724444      -1.312773
      -0.150287       0.750000      -1.290315
      -0.343098       0.724444      -1.267858
      -0.522769       0.649519      -1.246931
      -0.677056       0.530330      -1.228961
      -0.795445       0.375000      -1.215172
      -0.869867       0.194114      -1.206504
      -0.895251      -0.000000      -1.203547
      -0.869867      -0.194114      -1.206504
      -0.795445      -0.375000      -1.215172
      -0.677056      -0.530330      -1.228961
      -0.522769      -0.649519      -1.246931
      -0.343098      -0.724444      -1.267858
      -0.150287      -0.750000      -1.290315
       0.042524      -0.724444      -1.312773
       0.222195      -0.649519      -1.333700
       0.376482      -0.530330      -1.351670
       0.494870      -0.375000      -1.365459
       0.569293      -0.194114      -1.374127
       0.472393       0.000000      -1.423673
       0.450938       0.164072      -1.421174
       0.388033       0.316964      -1.413847
       0.287967       0.448254      -1.402192
       0.157558       0.548997      -1.387003
       0.005693       0.612327      -1.369315
      -0.157278       0.633927      -1.350333
      -0.320248       0.612327      -1.331352
      -0.472113       0.548997      -1.313663
      -0.602522       0.448254      -1.298474
      -0.702588       0.316964      -1.286819
      -0.765493       0.164073      -1.279492
      -0.786948      -0.000000      -1.276993
      -0.765493      -0.164073      -1.279492
      -0.702588      -0.316964      -1.286819
      -0.602522      -0.448254      -1.298474
      -0.472113      -0.548997      -1.313663
      -0.320248      -0.612327      -1.331352
      -0.157278      -0.633927      -1.350333
       0.005693      -0.612327      -1.369315
       0.157558      -0.548997      -1.387003
       0.287967      -0.448254      -1.402192
       0.388033      -0.316964      -1.413847
       0.450938      -0.164073      -1.421174
       0.346514       0.000000      -1.459427
       0.329150       0.132782      -1.457405
       0.278243       0.256515      -1.451476
       0.197260       0.362767      -1.442043
       0.091722       0.444297      -1.429751
      -0.031181       0.495549      -1.415436
      -0.163071       0.513030      -1.400074
      -0.294962       0.495549      -1.384713
      -0.417864       0.444297      -1.370398
      -0.523402       0.362767      -1.358105
      -0.604385       0.256515      -1.348673
      -0.655293       0.132782      -1.342744
      -0.672657      -0.000000      -1.340721
      -0.655293      -0.132782      -1.342744
      -0.604385      -0.256515      -1.348673
      -0.523402      -0.362767      -1.358105
      -0.417864      -0.444297      -1.370398
      -0.294962      -0.495549      -1.384713
      -0.163071      -0.513030      -1.400074
      -0.031181      -0.495549      -1.415436
       0.091721      -0.444297      -1.429751
       0.197260      -0.362767      -1.442043
       0.278243      -0.256515      -1.451476
       0.329150      -0.132782      -1.457405
       0.217998       0.000000      -1.484074
       0.204858       0.100481      -1.482544
       0.166335       0.194114      -1.478057
       0.105052       0.274519      -1.470919
       0.025187       0.336216      -1.461617
      -0.067817       0.375000      -1.450785
      -0.167624       0.388229      -1.439160
      -0.267430       0.375000      -1.427535
      -0.360434       0.336216      -1.416703
      -0.440299       0.274519      -1.407400
      -0.501582       0.194114      -1.400263
      -0.540106       0.100481      -1.395776
      -0.553245      -0.000000      -1.394245
      -0.540106      -0.100481      -1.395776
      -0.501582      -0.194114      -1.400263
      -0.440299      -0.274519      -1.407400
      -0.360434      -0.336216      -1.416703
      -0.267430      -0.375000      -1.427535
      -0.167624      -0.388229      -1.439160
      -0.067817      -0.375000      -1.450785
       0.025187      -0.336216      -1.461617
       0.105052      -0.274519      -1.470919
       0.166335      -0.194114      -1.478057
       0.204858      -0.100481      -1.482544
       0.087823       0.000000      -1.497427
       0.079007       0.067415      -1.496400
       0.053161       0.130236      -1.493390
       0.012045       0.184182      -1.488601
      -0.041539       0.225576      -1.482360
      -0.103938       0.251597      -1.475092
      -0.170900       0.260472      -1.467292
      -0.237863       0.251597      -1.459493
      -0.300262       0.225576      -1.452225
      -0.353845       0.184182      -1.445984
      -0.394961       0.130236      -1.441195
      -0.420808       0.067415      -1.438185
      -0.429624      -0.000000      -1.437158
      -0.420808      -0.067415      -1.438185
      -0.394961      -0.130236      -1.441195
      -0.353845      -0.184182      -1.445984
      -0.300262      -0.225576      -1.452225
      -0.237863      -0.251597      -1.459493
      -0.170900      -0.260472      -1.467292
      -0.103938      -0.251597      -1.475092
      -0.041539      -0.225576      -1.482360
       0.012045      -0.184182      -1.488601
       0.053161      -0.130236      -1.493390
       0.079007      -0.067415      -1.496400
      -0.043020       0.000000      -1.499383
      -0.047445       0.033836      -1.498868
      -0.060418       0.065367      -1.497357
      -0.081054       0.092443      -1.494953
      -0.107948       0.113219      -1.491821
      -0.139267       0.126279      -1.488173
      -0.172876       0.130734      -1.484258
      -0.206485       0.126279      -1.480344
      -0.237804       0.113219      -1.476696
      -0.264698       0.092443      -1.473563
      -0.285335       0.065367      -1.471160
      -0.298307       0.033836      -1.469649
      -0.302732      -0.000000      -1.469133
      -0.298307      -0.033836      -1.469649
      -0.285335      -0.065367      -1.471160
      -0.264698      -0.092443      -1.473563
      -0.237804      -0.113219      -1.476696
      -0.206485      -0.126279      -1.480344
      -0.172876      -0.130734      -1.484258
      -0.139267      -0.126279      -1.488173
      -0.107948      -0.113219      -1.491821
      -0.081054      -0.092443      -1.494953
      -0.060418      -0.065367      -1.497357
      -0.047445      -0.033836      -1.498868
VERTICES      288     576
 1        0
 1        1
 1        2
 1        3
 1        4
 1        5
 1        6
 1        7
 1        8
 1        9
 1       10
 1       11
 1       12
 1       13
 1       14
 1       15
 1       16
 1       17
 1       18
 1       19
 1       20
 1       21
 1       22
 1       23
 1       24
 1       25
 1       26
 1       27
 1       28
 1       29
 1       30
 1       31
 1       32
 1       33
 1       34
 1       35
 1       36
 1       37
 1       38
 1       39
 1       40
 1       41
 1       42
 1       43
 1       44
 1       45
 1       46
 1       47
 1       48
 1       49
 1       50
 1       51
 1       52
 1       53
 1       54
 1       55
 1       56
 1       57
 1       58
 1       59
 1       60
 1       61
 1       62
 1       63
 1       64
 1       65
 1       66
 1       67
 1       68
 1       69
 1       70
 1       71
 1       72
 1       73
 1       74
 1       75
 1       76
 1       77
 1       78
 1       79
 1       80
 1       81
 1       82
 1       83
 1       84
 1       85
 1       86
 1       87
 1       88
 1       89
 1       90
 1       91
 1       92
 1       93
 1       94
 1       95
 1       96
 1       97
 1       98
 1       99
 1      100
 1      101
 1      102
 1      103
 1      104
 1      105
 1      106
 1      107
 1      108
 1      109
 1      110
 1      111
 1      112
 1      113
 1      114
 1      115
 1      116
 1      117
 1      118
 1      119
 1      120
 1      121
 1      122
 1      123
 1      124
 1      125
 1      126
 1      127
 1      128
 1      129
 1      130
 1      131
 1      132
 1      133
 1      134
 1      135
 1      136
 1      137
 1      138
 1      139
 1      140
 1      141
 1      142
 1      143
 1      144
 1      145
 1      146
 1      147
 1      148
 1      149
 1      150
 1      151
 1      152
 1      153
 1      154
 1      155
 1      156
 1      157
 1      158
 1      159
 1      160
 1      161
 1      162
 1      163
 1      164
 1      165
 1      166
 1      167
 1      168
 1      169
 1      170
 1      171
 1      172
 1      173
 1      174
 1      175
 1      176
 1      177
 1      178
 1      179
 1      180
 1      181
 1      182
 1      183
 1      184
 1      185
 1      186
 1      187
 1      188
 1      189
 1      190
 1      191
 1      192
 1      193
 1      194
 1      195
 1      196
 1      197
 1      198
 1      199
 1      200
 1      201
 1      202
 1      203
 1      204
 1      205
 1      206
 1      207
 1      208
 1      209
 1      210
 1      211
 1      212
 1      213
 1      214
 1      215
 1      216
 1      217
 1      218
 1      219
 1      220
 1      221
 1      222
 1      223
 1      224
 1      225
 1      226
 1      227
 1      228
 1      229
 1      230
 1      231
 1      232
 1      233
 1      234
 1      235
 1      236
 1      237
 1      238
 1      239
 1      240
 1      241
 1      242
 1      243
 1      244
 1      245
 1      246
 1      247
 1      248
 1      249
 1      250
 1      251
 1      252
 1      253
 1      254
 1      255
 1      256
 1      257
 1      258
 1      259
 1      260
 1      261
 1      262
 1      263
 1      264
 1      265
 1      266
 1      267
 1      268
 1      269
 1      270
 1      271
 1      272
 1      273
 1      274
 1      275
 1      276
 1      277
 1      278
 1      279
 1      280
 1      281
 1      282
 1      283
 1      284
 1      285
 1      286
 1      287
POINT_DATA      288
SCALARS hemisphere int 1
LOOKUP_TABLE default
 1
 1
 1
 1
 1
 1
 1
 1
 1
 1
 1
 1
 1
 1
 1
 1
 1
 1
 1
 1
 1
 1
 1
 1
 1
 1
 1
 1
 1
 1
 1
 1
 1
 1
 1
 1
 1
 1
 1
 1
 1
 1
 1
 1
 1
 1
 1
 1
 1
 1
 1
 1
 1
 1
 1
 1
 1
 1
 1
 1
 1
 1
 1
 1
 1
 1
 1
 1
 1
 1
 1
 1
 1
 1
 1
 1
 1
 1
 1
 1
 1
 1
 1
 1
 1
 1
 1
 1
 1
 1
 1
 1
 1
 1
 1
 1
 1
 1
 1
 1
 1
 1
 1
 1
 1
 1
 1
 1
 1
 1
 1
 1
 1
 1
 1
 1
 1
 1
 1
 1
 1
 1
 1
 1
 1
 1
 1
 1
 1
 1
 1
 1
 1
 1
 1
 1
 1
 1
 1
 1
 1
 1
 1
 1
-1
-1
-1
-1
-1
-1
-1
-1
-1
-1
-1
-1
-1
-1
-1
-1
-1
-1
-1
-1
-1
-1
-1
-1
-1
-1
-1
-1
-1
-1
-1
-1
-1
-1
-1
-1
-1
-1
-1
-1
-1
-1
-1
-1
-1
-1
-1
-1
-1
-1
-1
-1
-1
-1
-1
-1
-1
-1
-1
-1
-1
-1
-1
-1
-1
-1
-1
-1
-1
-1
-1
-1
-1
-1
-1
-1
-1
-1
-1
-1
-1
-1
-1
-1
-1
-1
-1
-1
-1
-1
-1
-1
-1
-1
-1
-1
-1
-1
-1
-1
-1
-1
-1
-1
-1
-1
-1
-1
-1
-1
-1
-1
-1
-1
-1
-1
-1
-1
-1
-1
-1
-1
-1
-1
-1
-1
-1
-1
-1
-1
-1
-1
-1
-1
-1
-1
-1
-1
-1
-1
-1
-1
-1
-1
