# vtk DataFile Version 3.0
T01 + IGRF magnetic field in GSW coordinates
ASCII
DATASET STRUCTURED_GRID
DIMENSIONS     61    21    21
POINTS    26901 float
     -50.000000     -10.000000     -10.000000
     -49.000000     -10.000000     -10.000000
     -48.000000     -10.000000     -10.000000
     -47.000000     -10.000000     -10.000000
     -46.000000     -10.000000     -10.000000
     -45.000000     -10.000000     -10.000000
     -44.000000     -10.000000     -10.000000
     -43.000000     -10.000000     -10.000000
     -42.000000     -10.000000     -10.000000
     -41.000000     -10.000000     -10.000000
     -40.000000     -10.000000     -10.000000
     -39.000000     -10.000000     -10.000000
     -38.000000     -10.000000     -10.000000
     -37.000000     -10.000000     -10.000000
     -36.000000     -10.000000     -10.000000
     -35.000000     -10.000000     -10.000000
     -34.000000     -10.000000     -10.000000
     -33.000000     -10.000000     -10.000000
     -32.000000     -10.000000     -10.000000
     -31.000000     -10.000000     -10.000000
     -30.000000     -10.000000     -10.000000
     -29.000000     -10.000000     -10.000000
     -28.000000     -10.000000     -10.000000
     -27.000000     -10.000000     -10.000000
     -26.000000     -10.000000     -10.000000
     -25.000000     -10.000000     -10.000000
     -24.000000     -10.000000     -10.000000
     -23.000000     -10.000000     -10.000000
     -22.000000     -10.000000     -10.000000
     -21.000000     -10.000000     -10.000000
     -20.000000     -10.000000     -10.000000
     -19.000000     -10.000000     -10.000000
     -18.000000     -10.000000     -10.000000
     -17.000000     -10.000000     -10.000000
     -16.000000     -10.000000     -10.000000
     -15.000000     -10.000000     -10.000000
     -14.000000     -10.000000     -10.000000
     -13.000000     -10.000000     -10.000000
     -12.000000     -10.000000     -10.000000
     -11.000000     -10.000000     -10.000000
     -10.000000     -10.000000     -10.000000
      -9.000000     -10.000000     -10.000000
      -8.000000     -10.000000     -10.000000
      -7.000000     -10.000000     -10.000000
      -6.000000     -10.000000     -10.000000
      -5.000000     -10.000000     -10.000000
      -4.000000     -10.000000     -10.000000
      -3.000000     -10.000000     -10.000000
      -2.000000     -10.000000     -10.000000
      -1.000000     -10.000000     -10.000000
       0.000000     -10.000000     -10.000000
       1.000000     -10.000000     -10.000000
       2.000000     -10.000000     -10.000000
       3.000000     -10.000000     -10.000000
       4.000000     -10.000000     -10.000000
       5.000000     -10.000000     -10.000000
       6.000000     -10.000000     -10.000000
       7.000000     -10.000000     -10.000000
       8.000000     -10.000000     -10.000000
       9.000000     -10.000000     -10.000000
      10.000000     -10.000000     -10.000000
     -50.000000      -9.000000     -10.000000
     -49.000000      -9.000000     -10.000000
     -48.000000      -9.000000     -10.000000
     -47.000000      -9.000000     -10.000000
     -46.000000      -9.000000     -10.000000
     -45.000000      -9.000000     -10.000000
     -44.000000      -9.000000     -10.000000
     -43.000000      -9.000000     -10.000000
     -42.000000      -9.000000     -10.000000
     -41.000000      -9.000000     -10.000000
     -40.000000      -9.000000     -10.000000
     -39.000000      -9.000000     -10.000000
     -38.000000      -9.000000     -10.000000
     -37.000000      -9.000000     -10.000000
     -36.000000      -9.000000     -10.000000
     -35.000000      -9.000000     -10.000000
     -34.000000      -9.000000     -10.000000
     -33.000000      -9.000000     -10.000000
     -32.000000      -9.000000     -10.000000
     -31.000000      -9.000000     -10.000000
     -30.000000      -9.000000     -10.000000
     -29.000000      -9.000000     -10.000000
     -28.000000      -9.000000     -10.000000
     -27.000000      -9.000000     -10.000000
     -26.000000      -9.000000     -10.000000
     -25.000000      -9.000000     -10.000000
     -24.000000      -9.000000     -10.000000
     -23.000000      -9.000000     -10.000000
     -22.000000      -9.000000     -10.000000
     -21.000000      -9.000000     -10.000000
     -20.000000      -9.000000     -10.000000
     -19.000000      -9.000000     -10.000000
     -18.000000      -9.000000     -10.000000
     -17.000000      -9.000000     -10.000000
     -16.000000      -9.000000     -10.000000
     -15.000000      -9.000000     -10.000000
     -14.000000      -9.000000     -10.000000
     -13.000000      -9.000000     -10.000000
     -12.000000      -9.000000     -10.000000
     -11.000000      -9.000000     -10.000000
     -10.000000      -9.000000     -10.000000
      -9.000000      -9.000000     -10.000000
      -8.000000      -9.000000     -10.000000
      -7.000000      -9.000000     -10.000000
      -6.000000      -9.000000     -10.000000
      -5.000000      -9.000000     -10.000000
      -4.000000      -9.000000     -10.000000
      -3.000000      -9.000000     -10.000000
      -2.000000      -9.000000     -10.000000
      -1.000000      -9.000000     -10.000000
       0.000000      -9.000000     -10.000000
       1.000000      -9.000000     -10.000000
       2.000000      -9.000000     -10.000000
       3.000000      -9.000000     -10.000000
       4.000000      -9.000000     -10.000000
       5.000000      -9.000000     -10.000000
       6.000000      -9.000000     -10.000000
       7.000000      -9.000000     -10.000000
       8.000000      -9.000000     -10.000000
       9.000000      -9.000000     -10.000000
      10.000000      -9.000000     -10.000000
     -50.000000      -8.000000     -10.000000
     -49.000000      -8.000000     -10.000000
     -48.000000      -8.000000     -10.000000
     -47.000000      -8.000000     -10.000000
     -46.000000      -8.000000     -10.000000
     -45.000000      -8.000000     -10.000000
     -44.000000      -8.000000     -10.000000
     -43.000000      -8.000000     -10.000000
     -42.000000      -8.000000     -10.000000
     -41.000000      -8.000000     -10.000000
     -40.000000      -8.000000     -10.000000
     -39.000000      -8.000000     -10.000000
     -38.000000      -8.000000     -10.000000
     -37.000000      -8.000000     -10.000000
     -36.000000      -8.000000     -10.000000
     -35.000000      -8.000000     -10.000000
     -34.000000      -8.000000     -10.000000
     -33.000000      -8.000000     -10.000000
     -32.000000      -8.000000     -10.000000
     -31.000000      -8.000000     -10.000000
     -30.000000      -8.000000     -10.000000
     -29.000000      -8.000000     -10.000000
     -28.000000      -8.000000     -10.000000
     -27.000000      -8.000000     -10.000000
     -26.000000      -8.000000     -10.000000
     -25.000000      -8.000000     -10.000000
     -24.000000      -8.000000     -10.000000
     -23.000000      -8.000000     -10.000000
     -22.000000      -8.000000     -10.000000
     -21.000000      -8.000000     -10.000000
     -20.000000      -8.000000     -10.000000
     -19.000000      -8.000000     -10.000000
     -18.000000      -8.000000     -10.000000
     -17.000000      -8.000000     -10.000000
     -16.000000      -8.000000     -10.000000
     -15.000000      -8.000000     -10.000000
     -14.000000      -8.000000     -10.000000
     -13.000000      -8.000000     -10.000000
     -12.000000      -8.000000     -10.000000
     -11.000000      -8.000000     -10.000000
     -10.000000      -8.000000     -10.000000
      -9.000000      -8.000000     -10.000000
      -8.000000      -8.000000     -10.000000
      -7.000000      -8.000000     -10.000000
      -6.000000      -8.000000     -10.000000
      -5.000000      -8.000000     -10.000000
      -4.000000      -8.000000     -10.000000
      -3.000000      -8.000000     -10.000000
      -2.000000      -8.000000     -10.000000
      -1.000000      -8.000000     -10.000000
       0.000000      -8.000000     -10.000000
       1.000000      -8.000000     -10.000000
       2.000000      -8.000000     -10.000000
       3.000000      -8.000000     -10.000000
       4.000000      -8.000000     -10.000000
       5.000000      -8.000000     -10.000000
       6.000000      -8.000000     -10.000000
       7.000000      -8.000000     -10.000000
       8.000000      -8.000000     -10.000000
       9.000000      -8.000000     -10.000000
      10.000000      -8.000000     -10.000000
     -50.000000      -7.000000     -10.000000
     -49.000000      -7.000000     -10.000000
     -48.000000      -7.000000     -10.000000
     -47.000000      -7.000000     -10.000000
     -46.000000      -7.000000     -10.000000
     -45.000000      -7.000000     -10.000000
     -44.000000      -7.000000     -10.000000
     -43.000000      -7.000000     -10.000000
     -42.000000      -7.000000     -10.000000
     -41.000000      -7.000000     -10.000000
     -40.000000      -7.000000     -10.000000
     -39.000000      -7.000000     -10.000000
     -38.000000      -7.000000     -10.000000
     -37.000000      -7.000000     -10.000000
     -36.000000      -7.000000     -10.000000
     -35.000000      -7.000000     -10.000000
     -34.000000      -7.000000     -10.000000
     -33.000000      -7.000000     -10.000000
     -32.000000      -7.000000     -10.000000
     -31.000000      -7.000000     -10.000000
     -30.000000      -7.000000     -10.000000
     -29.000000      -7.000000     -10.000000
     -28.000000      -7.000000     -10.000000
     -27.000000      -7.000000     -10.000000
     -26.000000      -7.000000     -10.000000
     -25.000000      -7.000000     -10.000000
[...]
POINT_DATA    26901
VECTORS B_total float
  -1.0373336E+01  -1.5318704E+00   3.1679459E+00
  -1.0718968E+01  -1.5738585E+00   3.2562211E+00
  -1.1073549E+01  -1.6173487E+00   3.3452408E+00
  -1.1437274E+01  -1.6625055E+00   3.4346859E+00
  -1.1810370E+01  -1.7095201E+00   3.5241940E+00
  -1.2193114E+01  -1.7586129E+00   3.6133540E+00
  -1.2585831E+01  -1.8100371E+00   3.7016995E+00
  -1.2988904E+01  -1.8640826E+00   3.7887037E+00
  -1.3402784E+01  -1.9210792E+00   3.8737693E+00
  -1.3827995E+01  -1.9814010E+00   3.9562225E+00
  -1.4265137E+01  -2.0454714E+00   4.0353012E+00
  -1.4714895E+01  -2.1137669E+00   4.1101451E+00
  -1.5178040E+01  -2.1868229E+00   4.1797853E+00
  -1.5655429E+01  -2.2652407E+00   4.2431302E+00
  -1.6148008E+01  -2.3496919E+00   4.2989569E+00
  -1.6656801E+01  -2.4409282E+00   4.3458982E+00
  -1.7182903E+01  -2.5397897E+00   4.3824320E+00
  -1.7727470E+01  -2.6472144E+00   4.4068780E+00
  -1.8291698E+01  -2.7642529E+00   4.4173865E+00
  -1.8876808E+01  -2.8920825E+00   4.4119430E+00
  -1.9484011E+01  -3.0320253E+00   4.3883710E+00
  -2.0114479E+01  -3.1855745E+00   4.3443394E+00
  -2.0769320E+01  -3.3544195E+00   4.2773752E+00
  -2.1449526E+01  -3.5404820E+00   4.1848826E+00
  -2.2155930E+01  -3.7459574E+00   4.0641632E+00
  -2.2889151E+01  -3.9733615E+00   3.9124367E+00
  -2.3649509E+01  -4.2255907E+00   3.7268701E+00
  -2.4436934E+01  -4.5059829E+00   3.5046051E+00
  -2.5250832E+01  -4.8183928E+00   3.2428098E+00
  -2.6089909E+01  -5.1672707E+00   2.9387436E+00
  -2.6951960E+01  -5.5577478E+00   2.5898716E+00
  -2.7833603E+01  -5.9957204E+00   2.1940379E+00
  -2.8729973E+01  -6.4879265E+00   1.7497083E+00
  -2.9634426E+01  -7.0420055E+00   1.2563102E+00
  -3.0538202E+01  -7.6664796E+00   7.1464843E-01
  -3.1430138E+01  -8.3706532E+00   1.2738514E-01
  -3.2296429E+01  -9.1643019E+00  -5.0044030E-01
  -3.3120399E+01  -1.0057062E+01  -1.1608891E+00
  -3.3882362E+01  -1.1057373E+01  -1.8426042E+00
  -3.4559551E+01  -1.2170780E+01  -2.5302505E+00
  -3.5126190E+01  -1.3397493E+01  -3.2038088E+00
  -3.5554054E+01  -1.4729145E+01  -3.8375041E+00
  -3.5813889E+01  -1.6144939E+01  -4.3982430E+00
  -3.5878426E+01  -1.7607759E+01  -4.8435555E+00
  -3.5727726E+01  -1.9061228E+01  -5.1195259E+00
  -3.5356979E+01  -2.0429020E+01  -5.1596718E+00
  -3.4786064E+01  -2.1617966E+01  -4.8861618E+00
  -3.4068615E+01  -2.2525764E+01  -4.2143292E+00
  -3.3297256E+01  -2.3052952E+01  -3.0604582E+00
   1.5358174E-01  -3.1025791E-01   3.6480236E-01
   1.6152167E-01  -2.7583504E-01   3.9262819E-01
   1.5776062E-01  -2.4275875E-01   4.2264175E-01
   1.4331961E-01  -2.1445084E-01   4.5160437E-01
   1.2084007E-01  -1.9340038E-01   4.7681022E-01
   9.3849659E-02  -1.8074799E-01   4.9656844E-01
   6.5893650E-02  -1.7629147E-01   5.1031578E-01
   3.9860249E-02  -1.7879200E-01   5.1845539E-01
   1.7632484E-02  -1.8645954E-01   5.2200103E-01
   7.2956085E-05  -1.9739771E-01   5.2220565E-01
  -1.2762547E-02  -2.0993519E-01   5.2026880E-01
  -2.1353722E-02  -2.2277355E-01   5.1719368E-01
  -1.0418492E+01  -1.4269258E+00   3.1596520E+00
  -1.0765580E+01  -1.4653926E+00   3.2460310E+00
  -1.1121774E+01  -1.5052290E+00   3.3329823E+00
  -1.1487293E+01  -1.5465859E+00   3.4201820E+00
  -1.1862395E+01  -1.5896380E+00   3.5072622E+00
  -1.2247387E+01  -1.6345876E+00   3.5938065E+00
  -1.2642629E+01  -1.6816676E+00   3.6793435E+00
  -1.3048542E+01  -1.7311442E+00   3.7633405E+00
  -1.3465623E+01  -1.7833211E+00   3.8451943E+00
  -1.3894437E+01  -1.8385440E+00   3.9242241E+00
  -1.4335634E+01  -1.8972033E+00   3.9996595E+00
  -1.4789954E+01  -1.9597415E+00   4.0706310E+00
  -1.5258226E+01  -2.0266554E+00   4.1361570E+00
  -1.5741370E+01  -2.0985053E+00   4.1951327E+00
  -1.6240400E+01  -2.1759200E+00   4.2463183E+00
  -1.6756413E+01  -2.2596056E+00   4.2883248E+00
  -1.7290590E+01  -2.3503551E+00   4.3196044E+00
  -1.7844181E+01  -2.4490607E+00   4.3384433E+00
  -1.8418484E+01  -2.5567265E+00   4.3429527E+00
  -1.9014839E+01  -2.6744871E+00   4.3310661E+00
  -1.9634598E+01  -2.8036289E+00   4.3005419E+00
  -2.0279097E+01  -2.9456172E+00   4.2489653E+00
  -2.0949633E+01  -3.1021283E+00   4.1737552E+00
  -2.1647430E+01  -3.2750885E+00   4.0721755E+00
  -2.2373590E+01  -3.4667268E+00   3.9413452E+00
  -2.3129051E+01  -3.6796305E+00   3.7782485E+00
  -2.3914522E+01  -3.9168181E+00   3.5797470E+00
  -2.4730383E+01  -4.1818209E+00   3.3425956E+00
  -2.5576571E+01  -4.4787841E+00   3.0634663E+00
  -2.6452417E+01  -4.8125796E+00   2.7389965E+00
  -2.7356443E+01  -5.1889353E+00   2.3658652E+00
  -2.8286110E+01  -5.6145811E+00   1.9409214E+00
  -2.9237516E+01  -6.0973978E+00   1.4613734E+00
  -3.0205070E+01  -6.6465588E+00   9.2503548E-01
  -3.1181108E+01  -7.2726269E+00   3.3063719E-01
  -3.2155483E+01  -7.9875422E+00  -3.2182109E-01
  -3.3115051E+01  -8.8044090E+00  -1.0306923E+00
  -3.4043083E+01  -9.7369461E+00  -1.7922583E+00
  -3.4918495E+01  -1.0798368E+01  -2.6001959E+00
  -3.5714943E+01  -1.1999504E+01  -3.4447932E+00
  -3.6399952E+01  -1.3345886E+01  -4.3116355E+00
  -3.6934471E+01  -1.4833698E+01  -5.1794453E+00
  -3.7273678E+01  -1.6444635E+01  -6.0168071E+00
  -3.7370209E+01  -1.8140356E+01  -6.7779016E+00
  -3.7181068E+01  -1.9857584E+01  -7.3980746E+00
  -3.6678848E+01  -2.1505919E+01  -7.7909336E+00
  -3.5866390E+01  -2.2970524E+01  -7.8493676E+00
  -3.4791714E+01  -2.4121675E+01  -7.4526539E+00
  -3.3557854E+01  -2.4831272E+01  -6.4800739E+00
  -3.2321674E+01  -2.4993233E+01  -4.8284998E+00
  -1.7931845E+00  -1.7821159E+00   2.0252037E-01
   1.9177675E-01  -2.0394516E-01   4.2174959E-01
   1.6973352E-01  -1.7141914E-01   4.6059036E-01
   1.3768435E-01  -1.4924717E-01   4.9298477E-01
   1.0087967E-01  -1.3846302E-01   5.1678777E-01
   6.4280510E-02  -1.3817883E-01   5.3168344E-01
   3.1648636E-02  -1.4626408E-01   5.3874993E-01
   5.1269531E-03  -1.6001320E-01   5.3983068E-01
  -1.4611244E-02  -1.7682552E-01   5.3693593E-01
  -2.7957439E-02  -1.9457483E-01   5.3183699E-01
  -3.5912514E-02  -2.1174765E-01   5.2587950E-01
  -1.0450836E+01  -1.3156700E+00   3.1489568E+00
  -1.0798985E+01  -1.3504025E+00   3.2335818E+00
  -1.1156378E+01  -1.3863662E+00   3.3186314E+00
  -1.1523258E+01  -1.4236975E+00   3.4037783E+00
  -1.1899911E+01  -1.4625543E+00   3.4886513E+00
  -1.2286671E+01  -1.5031198E+00   3.5728312E+00
  -1.2683931E+01  -1.5456048E+00   3.6558437E+00
  -1.3092151E+01  -1.5902510E+00   3.7371526E+00
  -1.3511861E+01  -1.6373346E+00   3.8161521E+00
  -1.3943672E+01  -1.6871699E+00   3.8921571E+00
  -1.4388281E+01  -1.7401135E+00   3.9643922E+00
  -1.4846476E+01  -1.7965690E+00   4.0319824E+00
  -1.5319139E+01  -1.8569922E+00   4.0939393E+00
  -1.5807255E+01  -1.9218981E+00   4.1491489E+00
  -1.6311899E+01  -1.9918661E+00   4.1963582E+00
  -1.6834246E+01  -2.0675504E+00   4.2341628E+00
  -1.7375555E+01  -2.1496892E+00   4.2609963E+00
  -1.7937166E+01  -2.2391162E+00   4.2751174E+00
  -1.8520491E+01  -2.3367772E+00   4.2746038E+00
  -1.9126987E+01  -2.4437480E+00   4.2573447E+00
  -1.9758150E+01  -2.5612571E+00   4.2210402E+00
  -2.0415489E+01  -2.6907160E+00   4.1631980E+00
  -2.1100508E+01  -2.8337541E+00   4.0811343E+00
  -2.1814669E+01  -2.9922633E+00   3.9719782E+00
  -2.2559370E+01  -3.1684544E+00   3.8326685E+00
  -2.3335918E+01  -3.3649225E+00   3.6599545E+00
  -2.4145445E+01  -3.5847335E+00   3.4503889E+00
  -2.4988853E+01  -3.8315177E+00   3.2003260E+00
  -2.5866707E+01  -4.1096010E+00   2.9059210E+00
  -2.6779095E+01  -4.4241400E+00   2.5631399E+00
  -2.7725454E+01  -4.7813067E+00   2.1678009E+00
  -2.8704330E+01  -5.1884842E+00   1.7156345E+00
  -2.9713108E+01  -5.6544981E+00   1.2023860E+00
  -3.0747673E+01  -6.1898518E+00   6.2395394E-01
  -3.1801998E+01  -6.8069482E+00  -2.3460917E-02
  -3.2867584E+01  -7.5202093E+00  -7.4318761E-01
  -3.3932735E+01  -8.3460340E+00  -1.5379107E+00
  -3.4981476E+01  -9.3023472E+00  -2.4094152E+00
  -3.5992115E+01  -1.0407598E+01  -3.3581386E+00
  -3.6935326E+01  -1.1678790E+01  -4.3821993E+00
  -3.7772003E+01  -1.3128262E+01  -5.4754820E+00
  -3.8451355E+01  -1.4758850E+01  -6.6241956E+00
  -3.8910545E+01  -1.6557428E+01  -7.8014851E+00
  -3.9077599E+01  -1.8487225E+01  -8.9601574E+00
  -3.8879662E+01  -2.0480337E+01  -1.0024624E+01
  -3.8258205E+01  -2.2432869E+01  -1.0884712E+01
  -3.7190643E+01  -2.4206326E+01  -1.1395218E+01
  -3.5714001E+01  -2.5638397E+01  -1.1385509E+01
  -3.3942688E+01  -2.6564552E+01  -1.0680723E+01
  -3.2070217E+01  -2.6847260E+01  -9.1317368E+00
  -3.0348234E+01  -2.6404585E+01  -6.6445832E+00
  -3.0594559E+00  -2.9698715E+00   2.4141312E-02
   1.9825840E-01  -1.1521912E-01   4.8332024E-01
   1.5306759E-01  -9.3732834E-02   5.2377892E-01
   1.0348320E-01  -8.7262154E-02   5.5095863E-01
   5.6344986E-02  -9.3837738E-02   5.6522465E-01
   1.6344070E-02  -1.0998535E-01   5.6888604E-01
  -1.4322281E-02  -1.3183880E-01   5.6511533E-01
  -3.5496712E-02  -1.5598345E-01   5.5699277E-01
  -4.8320770E-02  -1.7987490E-01   5.4700726E-01
  -5.4539680E-02  -2.0189476E-01   5.3687644E-01
  -1.0472443E+01  -1.1984053E+00   3.1354120E+00
  -1.0821329E+01  -1.2292143E+00   3.2184122E+00
  -1.1179583E+01  -1.2611116E+00   3.3017130E+00
  -1.1547465E+01  -1.2942183E+00   3.3849850E+00
  -1.1925287E+01  -1.3286753E+00   3.4678562E+00
  -1.2313412E+01  -1.3646454E+00   3.5499058E+00
  -1.2712260E+01  -1.4023167E+00   3.6306589E+00
  -1.3122324E+01  -1.4419049E+00   3.7095785E+00
  -1.3544169E+01  -1.4836570E+00   3.7860577E+00
  -1.3978446E+01  -1.5278542E+00   3.8594098E+00
  -1.4425893E+01  -1.5748165E+00   3.9288588E+00
  -1.4887344E+01  -1.6249062E+00   3.9935260E+00
  -1.5363735E+01  -1.6785343E+00   4.0524197E+00
  -1.5856103E+01  -1.7361653E+00   4.1044202E+00
  -1.6365587E+01  -1.7983247E+00   4.1482673E+00
  -1.6893435E+01  -1.8656070E+00   4.1825457E+00
  -1.7440981E+01  -1.9386866E+00   4.2056742E+00
  -1.8009655E+01  -2.0183284E+00   4.2158909E+00
  -1.8600975E+01  -2.1054056E+00   4.2112455E+00
  -1.9216518E+01  -2.2009163E+00   4.1895900E+00
  -1.9857929E+01  -2.3060095E+00   4.1485710E+00
  -2.0526888E+01  -2.4220140E+00   4.0856271E+00
  -2.1225107E+01  -2.5504761E+00   3.9979792E+00
  -2.1954304E+01  -2.6932073E+00   3.8826268E+00
  -2.2716190E+01  -2.8523428E+00   3.7363367E+00
  -2.3512451E+01  -3.0304143E+00   3.5556273E+00
  -2.4344679E+01  -3.2304411E+00   3.3367457E+00
  -2.5214354E+01  -3.4560432E+00   3.0756433E+00
  -2.6122742E+01  -3.7115803E+00   2.7679434E+00
  -2.7070799E+01  -4.0023260E+00   2.4089179E+00
  -2.8059021E+01  -4.3346786E+00   1.9934647E+00
  -2.9087255E+01  -4.7164125E+00   1.5160964E+00
  -3.0154474E+01  -5.1569872E+00   9.7093654E-01
  -3.1258448E+01  -5.6678762E+00   3.5170120E-01
  -3.2395309E+01  -6.2629118E+00  -3.4834775E-01
  -3.3558910E+01  -6.9585795E+00  -1.1364825E+00
  -3.4739857E+01  -7.7741561E+00  -2.0206339E+00
  -3.5924007E+01  -8.7315083E+00  -3.0094209E+00
  -3.7090214E+01  -9.8542566E+00  -4.1119061E+00
  -3.8207317E+01  -1.1165961E+01  -5.3365951E+00
  -3.9230331E+01  -1.2686775E+01  -6.6889935E+00
  -4.0096645E+01  -1.4428061E+01  -8.1668577E+00
  -4.0723633E+01  -1.6384647E+01  -9.7522850E+00
  -4.1010334E+01  -1.8524910E+01  -1.1400470E+01
  -4.0846451E+01  -2.0779995E+01  -1.3026408E+01
  -4.0131813E+01  -2.3035372E+01  -1.4493091E+01
  -3.8806625E+01  -2.5129219E+01  -1.5607439E+01
  -3.6887936E+01  -2.6863703E+01  -1.6131464E+01
  -3.4500046E+01  -2.8031788E+01  -1.5813169E+01
  -3.1882750E+01  -2.8456816E+01  -1.4434303E+01
  -2.9364504E+01  -2.8033798E+01  -1.1860865E+01
  -2.7301580E+01  -2.6755903E+01  -8.0749893E+00
   2.2698593E-01  -4.5955658E-02   5.2758980E-01
   1.6427898E-01  -2.8072357E-02   5.7604694E-01
   9.8661423E-02  -2.9264450E-02   6.0451221E-01
   3.9265633E-02  -4.5890808E-02   6.1482048E-01
  -8.3732605E-03  -7.2730064E-02   6.1136007E-01
  -4.2381287E-02  -1.0455608E-01   5.9925604E-01
  -6.3607216E-02  -1.3716364E-01   5.8302897E-01
  -7.4357986E-02  -1.6771746E-01   5.6597877E-01
  -7.7388763E-02  -1.9467354E-01   5.5013704E-01
  -1.0485525E+01  -1.0755018E+00   3.1194739E+00
  -1.0834896E+01  -1.1022166E+00   3.2009854E+00
  -1.1193741E+01  -1.1298734E+00   3.2826958E+00
  -1.1562340E+01  -1.1585772E+00   3.3642757E+00
  -1.1941025E+01  -1.1884509E+00   3.4453530E+00
  -1.2330182E+01  -1.2196364E+00   3.5255072E+00
  -1.2730260E+01  -1.2522980E+00   3.6042640E+00
  -1.3141778E+01  -1.2866242E+00   3.6810868E+00
  -1.3565334E+01  -1.3228308E+00   3.7553697E+00
  -1.4001614E+01  -1.3611642E+00   3.8264270E+00
  -1.4451393E+01  -1.4019051E+00   3.8934827E+00
  -1.4915548E+01  -1.4453722E+00   3.9556589E+00
  -1.5395062E+01  -1.4919273E+00   4.0119619E+00
  -1.5891023E+01  -1.5419803E+00   4.0612702E+00
  -1.6404629E+01  -1.5959966E+00   4.1023188E+00
  -1.6937187E+01  -1.6545045E+00   4.1336861E+00
  -1.7490112E+01  -1.7181046E+00   4.1537790E+00
  -1.8064922E+01  -1.7874825E+00   4.1608214E+00
  -1.8663223E+01  -1.8634231E+00   4.1528392E+00
  -1.9286720E+01  -1.9468294E+00   4.1276526E+00
  -1.9937191E+01  -2.0387466E+00   4.0828633E+00
  -2.0616493E+01  -2.1403909E+00   4.0158458E+00
  -2.1326542E+01  -2.2531872E+00   3.9237335E+00
  -2.2069309E+01  -2.3788173E+00   3.8034072E+00
  -2.2846821E+01  -2.5192785E+00   3.6514702E+00
  -2.3661146E+01  -2.6769583E+00   3.4642215E+00
  -2.4514362E+01  -2.8547294E+00   3.2376144E+00
  -2.5408537E+01  -3.0560687E+00   2.9672034E+00
  -2.6345688E+01  -3.2852075E+00   2.6480877E+00
  -2.7327705E+01  -3.5473216E+00   2.2748365E+00
  -2.8356249E+01  -3.8487670E+00   1.8414054E+00
  -2.9432636E+01  -4.1973763E+00   1.3410363E+00
  -3.0557642E+01  -4.6028109E+00   7.6612490E-01
  -3.1731251E+01  -5.0769877E+00   1.0802124E-01
  -3.2952236E+01  -5.6345363E+00  -6.4325535E-01
  -3.4217457E+01  -6.2932520E+00  -1.4994199E+00
  -3.5520710E+01  -7.0744529E+00  -2.4744196E+00
  -3.6850819E+01  -8.0030575E+00  -3.5849099E+00
  -3.8188644E+01  -9.1070738E+00  -4.8503809E+00
  -3.9502789E+01  -1.0416073E+01  -6.2923489E+00
  -4.0743954E+01  -1.1958026E+01  -7.9316359E+00
  -4.1838608E+01  -1.3753727E+01  -9.7823629E+00
  -4.2683743E+01  -1.5808125E+01  -1.1841325E+01
  -4.3146038E+01  -1.8098345E+01  -1.4071836E+01
  -4.3070457E+01  -2.0559530E+01  -1.6383245E+01
  -4.2303459E+01  -2.3071758E+01  -1.8610525E+01
  -4.0733742E+01  -2.5454382E+01  -2.0503197E+01
  -3.8345512E+01  -2.7475866E+01  -2.1735960E+01
  -3.5268147E+01  -2.8885107E+01  -2.1951172E+01
  -3.1796247E+01  -2.9462383E+01  -2.0831520E+01
  -2.8357384E+01  -2.9075239E+01  -1.8181736E+01
  -2.5425766E+01  -2.7716732E+01  -1.3984586E+01
  -2.3410124E+01  -2.5506645E+01  -8.4006701E+00
   1.6763783E-01   4.2812347E-02   6.5729046E-01
   8.2863808E-02   3.0090332E-02   6.8282223E-01
   1.0149002E-02   2.5558472E-04   6.8380165E-01
  -4.4490814E-02  -3.9398193E-02   6.6787910E-01
  -8.0163956E-02  -8.2299232E-02   6.4286995E-01
  -9.9354744E-02  -1.2362576E-01   6.1501515E-01
  -1.0599613E-01  -1.6054869E-01   5.8841920E-01
  -1.0410786E-01  -1.9184017E-01   5.6524044E-01
  -1.0492270E+01  -9.4746214E-01   3.1022723E+00
  -1.0841941E+01  -9.6993071E-01   3.1824527E+00
  -1.1201173E+01  -9.9319100E-01   3.2627516E+00
  -1.1570266E+01  -1.0173321E+00   3.3428400E+00
  -1.1949571E+01  -1.0424577E+00   3.4223461E+00
  -1.2339494E+01  -1.0686883E+00   3.5008512E+00
  -1.2740504E+01  -1.0961629E+00   3.5778818E+00
  -1.3153151E+01  -1.1250418E+00   3.6529043E+00
  -1.3578055E+01  -1.1555082E+00   3.7253141E+00
  -1.4015935E+01  -1.1877714E+00   3.7944279E+00
  -1.4467600E+01  -1.2220708E+00   3.8594708E+00
  -1.4933962E+01  -1.2586778E+00   3.9195666E+00
  -1.5416047E+01  -1.2979015E+00   3.9737229E+00
  -1.5914988E+01  -1.3400934E+00   4.0208173E+00
  -1.6432035E+01  -1.3856522E+00   4.0595837E+00
  -1.6968554E+01  -1.4350328E+00   4.0885949E+00
  -1.7526024E+01  -1.4887537E+00   4.1062512E+00
  -1.8106045E+01  -1.5474091E+00   4.1107645E+00
  -1.8710316E+01  -1.6116812E+00   4.1001425E+00
  -1.9340645E+01  -1.6823596E+00   4.0721774E+00
  -1.9998947E+01  -1.7603614E+00   4.0244331E+00
  -2.0687237E+01  -1.8467602E+00   3.9542270E+00
  -2.1407623E+01  -1.9428210E+00   3.8586168E+00
  -2.2162329E+01  -2.0500450E+00   3.7343736E+00
  -2.2953671E+01  -2.1702275E+00   3.5779533E+00
  -2.3784094E+01  -2.3055272E+00   3.3854504E+00
  -2.4656147E+01  -2.4585629E+00   3.1525438E+00
  -2.5572495E+01  -2.6325285E+00   2.8744178E+00
  -2.6535896E+01  -2.8313451E+00   2.5456686E+00
  -2.7549191E+01  -3.0598524E+00   2.1601868E+00
  -2.8615244E+01  -3.3240564E+00   1.7110038E+00
  -2.9736906E+01  -3.6314404E+00   1.1900980E+00
  -3.0916899E+01  -3.9913557E+00   5.8811402E-01
  -3.2157608E+01  -4.4154835E+00  -1.0602462E-01
  -3.3460781E+01  -4.9183922E+00  -9.0568554E-01
  -3.4826782E+01  -5.5181141E+00  -1.8272960E+00
  -3.6253338E+01  -6.2366953E+00  -2.8913188E+00
  -3.7733318E+01  -7.1005564E+00  -4.1232867E+00
  -3.9251034E+01  -8.1403446E+00  -5.5545216E+00
  -4.0776745E+01  -9.3898907E+00  -7.2218113E+00
  -4.2258965E+01  -1.0883450E+01  -9.1646938E+00
  -4.3615211E+01  -1.2650404E+01  -1.1418536E+01
  -4.4723026E+01  -1.4706314E+01  -1.4001163E+01
  -4.5415302E+01  -1.7039621E+01  -1.6891178E+01
  -4.5486725E+01  -1.9594563E+01  -1.9998392E+01
  -4.4719749E+01  -2.2253649E+01  -2.3131445E+01
  -4.2936443E+01  -2.4826881E+01  -2.5975245E+01
  -4.0072903E+01  -2.7058506E+01  -2.8097776E+01
  -3.6255108E+01  -2.8660778E+01  -2.9004984E+01
  -3.1838020E+01  -2.9374687E+01  -2.8245777E+01
  -2.7369669E+01  -2.9040958E+01  -2.5538275E+01
  -2.3472481E+01  -2.7650532E+01  -2.0860958E+01
  -2.0682835E+01  -2.5348063E+01  -1.4457979E+01
  -1.3387484E+01  -1.5535069E+01  -4.4592686E+00
   5.2816391E-02   8.0877304E-02   7.8911781E-01
  -3.3067703E-02   3.5869598E-02   7.7329922E-01
  -9.2849731E-02  -1.7151833E-02   7.3817396E-01
  -1.2755966E-01  -7.0551872E-02   6.9497013E-01
  -1.4202881E-01  -1.1936522E-01   6.5175390E-01
  -1.4223862E-01  -1.6112757E-01   6.1319089E-01
  -1.3363647E-01  -1.9522429E-01   5.8123910E-01
  -1.0494700E+01  -8.1493878E-01   3.0853183E+00
  -1.0844537E+01  -8.3302802E-01   3.1643546E+00
  -1.1204010E+01  -8.5175550E-01   3.2434473E+00
  -1.1573432E+01  -8.7119335E-01   3.3222682E+00
  -1.1953168E+01  -8.9142591E-01   3.4004474E+00
  -1.2343643E+01  -9.1255099E-01   3.4775672E+00
  -1.2745348E+01  -9.3468159E-01   3.5531569E+00
  -1.3158846E+01  -9.5794791E-01   3.6266847E+00
  -1.3584787E+01  -9.8249918E-01   3.6975482E+00
  -1.4023912E+01  -1.0085062E+00   3.7650673E+00
  -1.4477062E+01  -1.0361638E+00   3.8284698E+00
  -1.4945178E+01  -1.0656940E+00   3.8868811E+00
  -1.5429320E+01  -1.0973498E+00   3.9393103E+00
  -1.5930661E+01  -1.1314183E+00   3.9846363E+00
  -1.6450497E+01  -1.1682280E+00   4.0215926E+00
  -1.6990242E+01  -1.2081525E+00   4.0487494E+00
  -1.7551437E+01  -1.2516199E+00   4.0645027E+00
  -1.8135746E+01  -1.2991216E+00   4.0670538E+00
  -1.8744949E+01  -1.3512242E+00   4.0543966E+00
  -1.9380955E+01  -1.4085853E+00   4.0243015E+00
  -2.0045794E+01  -1.4719720E+00   3.9742990E+00
  -2.0741617E+01  -1.5422859E+00   3.9016600E+00
  -2.1470718E+01  -1.6205943E+00   3.8033748E+00
  -2.2235531E+01  -1.7081693E+00   3.6761210E+00
  -2.3038651E+01  -1.8065407E+00   3.5162239E+00
  -2.3882862E+01  -1.9175578E+00   3.3196006E+00
  -2.4771151E+01  -2.0434771E+00   3.0816834E+00
  -2.5706726E+01  -2.1870677E+00   2.7973242E+00
  -2.6693058E+01  -2.3517540E+00   2.4606647E+00
  -2.7733883E+01  -2.5417931E+00   2.0649719E+00
  -2.8833235E+01  -2.7625136E+00   1.6024227E+00
  -2.9995459E+01  -3.0206137E+00   1.0638071E+00
  -3.1225189E+01  -3.3245482E+00   4.3810844E-01