<?xml version="1.0"?>
<VTKFile type="StructuredGrid" version="0.1" byte_order="LittleEndian" header_type="UInt32" compressor="vtkZLibDataCompressor">
  <StructuredGrid WholeExtent="0 60 0 20 0 20">
  <Piece Extent="0 60 0 20 0 20">
    <PointData Vectors="B_total">
      <DataArray type="Float32" Name="B_total" NumberOfComponents="3" format="ascii" RangeMin="0" RangeMax="56802.76483777314">
        -10.166145 -1.4788512 3.188043 -10.506978 -1.5193976 3.275637
        -10.856861 -1.5614684 3.363935 -11.216005 -1.6052333 3.4526322
        -11.584662 -1.6508899 3.5413816 -11.963128 -1.6986649 3.629791
        -12.351748 -1.748819 3.7174158 -12.750933 -1.8016497 3.8037546
        -13.161154 -1.8574955 3.8882382 -13.582956 -1.9167408 3.9702246
        -14.016969 -1.9798195 4.0489874 -14.4639 -2.047221 4.123705
        -14.924547 -2.1194947 4.1934495 -15.399799 -2.197258 4.2571754
        -15.890626 -2.2812011 4.313707 -16.398087 -2.3720975 4.361726
        -16.92331 -2.4708102 4.399761 -17.467487 -2.5783048 4.4261813
        -18.031855 -2.695662 4.439188 -18.617674 -2.8240929 4.436812
        -19.226204 -2.9649572 4.416919 -19.858673 -3.1197882 4.3772154
        -20.516245 -3.29032 4.315256 -21.19998 -3.4785209 4.228465
        -21.910788 -3.686636 4.114149 -22.649372 -3.9172347 3.9695215
        -23.416164 -4.173267 3.7917187 -24.211222 -4.458127 3.5778353
        -25.034094 -4.7757254 3.3249602 -25.883667 -5.1305695 3.030243
        -26.75795 -5.5278425 2.6909955 -27.653807 -5.973489 2.30486
        -28.566668 -6.474286 1.8700447 -29.490223 -7.037904 1.3856528
        -30.416094 -7.6728888 0.85209036 -31.33356 -8.388565 0.2715444
        -32.229298 -9.194739 -0.35150892 -33.087173 -10.101131 -1.0098001
        -33.888092 -11.11635 -1.6927619 -34.609867 -12.246267 -2.3860059
        -35.227318 -13.49168 -3.0706756 -35.712692 -14.845149 -3.7224507
        -36.03698 -16.28727 -4.310099 -36.172745 -17.782818 -4.7935247
        -36.099224 -19.277813 -5.121809 -35.809845 -20.698702 -5.232126
        -35.321598 -21.955261 -5.050931 -34.684032 -22.947893 -4.4983025
        -33.98483 -23.579185 -3.4955978 -3.9756653 -3.1226997 0.22039986
        0.15334988 -0.17038059 0.5600376 0.12268639 -0.14113331 0.5843611
        0.084617615 -0.12219906 0.6007767 0.04404354 -0.11472702 0.6081941
        0.0056734085 -0.11804295 0.60706997 -0.026909351 -0.13008308 0.5990435
        -0.051705837 -0.14805889 0.5863864 -0.06825876 -0.1691308 0.57140636
        -0.07727051 -0.1909008 0.5560322 -0.08012152 -0.21161509 0.54164815
        -0.0784049 -0.23020744 0.5290649 -10.208901 -1.3774872 3.1798093
        -10.551243 -1.4146682 3.2655869 -10.9028 -1.4532483 3.3519077
        -11.263811 -1.493384 3.4384613 -11.634557 -1.5352569 3.5248966
        -12.015365 -1.5790762 3.6108165 -12.40662 -1.6250821 3.6957724
        -12.808768 -1.6735499 3.7792566 -13.222328 -1.7247925 3.8606954
        -13.647893 -1.7791655 3.9394398 -14.086142 -1.8370719 4.014755
        -14.537841 -1.8989664 4.0858097 -15.00385 -1.965362 4.1516657
        -15.485125 -2.0368347 4.211262 -15.982711 -2.1140332 4.2634044
        -16.497746 -2.197685 4.306752 -17.031454 -2.2886074 4.3398075
        -17.585121 -2.3877199 4.360903 -18.160105 -2.496057 4.3681965
        -18.757792 -2.6147873 4.359665 -19.379591 -2.7452338 4.333105
        -20.026909 -2.888901 4.2861342 -20.701107 -3.0475066 4.216196
        -21.403492 -3.2230244 4.1205683 -22.135256 -3.4177275 3.9963717
        -22.897436 -3.6342525 3.8405802 -23.690865 -3.875667 3.6500201
        -24.516064 -4.1455517 3.4213965 -25.373129 -4.448097 3.1513
        -26.26158 -4.7882185 2.8362532 -27.180162 -5.1716785 2.472782
        -28.12658 -5.6052322 2.0575345 -29.097221 -6.096773 1.5874707
        -30.086805 -6.655469 1.0601072 -31.088026 -7.2918615 0.47382122
        -32.091145 -8.01787 -0.17178689 -33.083477 -8.846586 -0.8755149
        -34.04884 -9.791764 -1.634144 -34.96678 -10.866764 -2.4419363
        -35.811695 -12.082742 -3.2898989 -36.551933 -13.445848 -4.1645665
        -37.149303 -14.953283 -5.04599 -37.559692 -16.58827 -5.904625
        -37.736134 -18.314583 -6.6972914 -37.6353 -20.071623 -7.3628745
        -37.22837 -21.772099 -7.819455 -36.51529 -23.304386 -7.9651604
        -35.53957 -24.541607 -7.6848273 -34.398388 -25.357483 -6.8630548
        -33.242302 -25.646347 -5.40122 -13.867298 -11.057572 -1.0648742
        0.1494708 -0.10478783 0.62613964 0.09841919 -0.082933426 0.647944
        0.04477024 -0.076182365 0.6562271 -0.004776001 -0.08325386 0.65201426
        -0.045430183 -0.10101318 0.6381669 -0.07485294 -0.12548923 0.6183212
        -0.092959404 -0.1528759 0.59597945 -0.10120773 -0.18013859 0.573907
        -0.1018095 -0.20525217 0.5539119 -0.0971117 -0.22711086 0.53692895
        -10.240531 -1.2701471 3.1693277 -10.584031 -1.3037412 3.2534292
        -10.936894 -1.3386009 3.3379354 -11.299385 -1.3748683 3.422533
        -11.67181 -1.412708 3.5068681 -12.054528 -1.4523107 3.590541
        -12.447957 -1.493895 3.6730998 -12.85258 -1.5377111 3.7540343
        -13.268955 -1.5840452 3.8327672 -13.697721 -1.6332216 3.9086459
        -14.139605 -1.6856095 3.98093 -14.595428 -1.7416253 4.048783
        -15.066109 -1.8017406 4.1112566 -15.552664 -1.866487 4.167281
        -16.056215 -1.9364634 4.215647 -16.577978 -2.0123453 4.2549973
        -17.119263 -2.0948946 4.2838097 -17.68146 -2.1849732 4.300389
        -18.266035 -2.283556 4.302854 -18.874512 -2.3917508 4.2891345
        -19.508455 -2.5108223 4.2569623 -20.169447 -2.6422188 4.203873
        -20.85907 -2.7876115 4.1272016 -21.578888 -2.9489336 4.024086
        -22.330395 -3.1284397 3.891463 -23.115013 -3.3287694 3.7260616
        -23.934011 -3.5530314 3.5244005 -24.788446 -3.8049006 3.2827759
        -25.67905 -4.0887375 2.9972568 -26.606121 -4.4097347 2.6636965
        -27.569307 -4.774082 2.2777553 -28.567411 -5.1891727 1.8349705
        -29.598087 -5.6638203 1.3308564 -30.657522 -6.208496 0.76104236
        -31.740017 -6.8355556 0.12143462 -32.837456 -7.559363 -0.5916015
        -33.93859 -8.396269 -1.3810651 -35.028015 -9.364213 -2.2490702
        -36.08475 -10.481765 -3.1964233 -37.080376 -11.766253 -4.221734
        -37.976875 -13.230654 -5.319633 -38.7247 -14.878876 -6.4775333
        -39.262264 -16.69944 -7.6705184 -39.518524 -18.657879 -8.854335
        -39.420826 -20.68924 -9.957578 -38.909527 -22.693089 -10.875552
        -37.95904 -24.534485 -11.469603 -36.60118 -26.054157 -11.575945
        -34.943153 -27.089277 -11.025805 -33.1704 -27.501987 -9.674213
        -31.527637 -27.20773 -7.428761 -14.193103 -12.394694 -1.6515207
        0.1129694 -0.040613174 0.7136984 0.04246807 -0.03562355 0.7220664
        -0.020942688 -0.047922134 0.71240187 -0.07095623 -0.07289028 0.6895137
        -0.10507202 -0.10504436 0.65915704 -0.12393856 -0.13948631 0.62652266
        -0.13019848 -0.17254162 0.59543496 -0.1272583 -0.20198488 0.56817484
        -0.1184001 -0.22681904 0.545712 -10.262739 -1.157233 3.156398
        -10.607104 -1.1870446 3.2389548 -10.960964 -1.2179811 3.3217998
        -11.324604 -1.2501693 3.4046183 -11.698357 -1.2837566 3.4870548
        -12.082609 -1.3189132 3.568709 -12.477807 -1.3558346 3.6491275
        -12.884469 -1.3947456 3.727799 -13.303191 -1.435902 3.8041453
        -13.734652 -1.4795957 3.877511 -14.179623 -1.5261583 3.9471545
        -14.638974 -1.5759655 4.012234 -15.113679 -1.6294427 4.071798
        -15.604817 -1.6870711 4.124767 -16.113575 -1.7493948 4.169924
        -16.641243 -1.8170292 4.2058964 -17.189217 -1.8906714 4.231145
        -17.758987 -1.9711128 4.2439494 -18.35213 -2.0592544 4.2423973
        -18.970303 -2.1561255 4.224374 -19.615217 -2.2629085 4.187555
        -20.288645 -2.3809674 4.1293983 -20.992388 -2.511887 4.047139
        -21.728273 -2.6575174 3.93778 -22.498123 -2.8200347 3.7980788
        -23.303751 -3.0020103 3.6245291 -24.146902 -3.2065034 3.4133382
        -25.029215 -3.437171 3.160393 -25.952145 -3.6984048 2.8612301
        -26.916853 -3.9955018 2.5110023 -27.92406 -4.334871 2.1044536
        -28.973873 -4.724287 1.6359137 -30.065512 -5.1731825 1.099291
        -31.197033 -5.6929827 0.4880734 -32.364883 -6.2974577 -0.20470935
        -33.563282 -7.0030174 -0.9865396 -34.783287 -7.8288817 -1.8655233
        -36.01134 -8.796907 -2.8504314 -37.22712 -9.930838 -3.9504814
        -38.400528 -11.254559 -5.174446 -39.487972 -12.788874 -6.5283813
        -40.428474 -14.546263 -8.011123 -41.14119 -16.523289 -9.606752
        -41.52668 -18.69077 -11.273738 -41.475407 -20.983051 -12.931965
        -40.886406 -23.289337 -14.451082 -39.696754 -25.451733 -15.646148
        -37.917347 -27.27559 -16.287722 -35.663525 -28.555407 -16.13123
        -33.164627 -29.113457 -14.962687 -30.73979 -28.84063 -12.647796
        -28.740494 -27.723606 -9.164022 -5.131795 -4.923893 -0.22669888
        0.035733223 0.002166748 0.80936813 -0.044282913 -0.016766548 0.7907524
        -0.10466671 -0.050050735 0.7544713 -0.1430254 -0.09049606 0.70935726
        -0.16135883 -0.13200188 0.66289735 -0.16401768 -0.17040777 0.62018836
        -0.15598583 -0.20346498 0.5839231 -0.14169025 -0.23044538 0.5549232
        -10.277349 -1.039194 3.1415434 -10.622341 -1.0650486 3.2226932
        -10.976943 -1.0918813 3.3040361 -11.341459 -1.1198027 3.3852565
        -11.716245 -1.1489419 3.4659991 -12.10171 -1.1794474 3.545863
        -12.498329 -1.2114909 3.6243947 -12.906651 -1.2452688 3.7010841
        -13.327301 -1.2810061 3.7753527 -13.761 -1.3189586 3.846545
        -14.208555 -1.3594184 3.913918 -14.670886 -1.402716 3.9766295
        -15.149013 -1.4492275 4.0337234 -15.644069 -1.499378 4.0841174
        -16.157305 -1.5536501 4.126586 -16.690083 -1.6125917 4.1597476
        -17.243876 -1.676825 4.1820483 -17.820267 -1.7470592 4.1917477
        -18.420937 -1.8241057 4.186906 -19.04767 -1.908896 4.1653695
        -19.70233 -2.0025058 4.124765 -20.386864 -2.1061845 4.062481
        -21.103296 -2.2213917 3.975658 -21.853714 -2.349845 3.8611736
        -22.640265 -2.4935787 3.715617 -23.46516 -2.6550164 3.5352554
        -24.330639 -2.8370674 3.3159962 -25.238943 -3.0432415 3.0533276
        -26.192286 -3.2777975 2.742255 -27.192774 -3.5459316 2.3772278
        -28.242298 -3.8540075 1.9520526 -29.342419 -4.2098484 1.4597969
        -30.494167 -4.6230917 0.892663 -31.697803 -5.1056046 0.24181272
        -32.95239 -5.6719513 -0.5028982 -34.255146 -6.339857 -1.353302
        -35.600334 -7.1305914 -2.3233886 -36.97741 -8.069078 -3.4297945
        -38.368137 -9.183458 -4.691963 -39.742382 -10.503654 -6.1314735
        -41.052498 -12.058317 -7.769488 -42.227016 -13.869401 -9.621118
        -43.1652 -15.943642 -11.685171 -43.73587 -18.260715 -13.92857
        -43.78535 -20.75911 -16.266315 -43.159676 -23.322855 -18.541332
        -41.744194 -25.775356 -20.513083 -39.515957 -27.888285 -21.866932
        -36.59324 -29.41174 -22.254383 -33.257195 -30.123926 -21.362717
        -29.923082 -29.886768 -18.994545 -27.058447 -28.684885 -15.123587
        -25.074835 -26.628904 -9.8974695 0.02327156 0.029211044 0.9198675
        -0.07575703 0.002861023 0.88764286 -0.14688683 -0.03881359 0.8326225
        -0.18841553 -0.08684826 0.7678852 -0.20441055 -0.13416004 0.7038331
        -0.2015791 -0.17634821 0.64693475 -0.18681622 -0.21140862 0.6001129
        -0.1658678 -0.23904562 0.5637612 -10.286161 -0.91657454 3.1258097
        -10.631596 -0.9383183 3.2057097 -10.986737 -0.96088725 3.2857263
        -11.351908 -0.9843755 3.3655448 -11.72748 -1.0088924 3.4448092
        -12.113888 -1.0345644 3.5231202 -12.511628 -1.0615371 3.6000257
        -12.921275 -1.0899779 3.6750162 -13.343485 -1.1200778 3.7475138
        -13.779008 -1.1520555 3.8168643 -14.22869 -1.1861595 3.8823252
        -14.693487 -1.2226727 3.9430542 -15.174463 -1.2619166 3.9980938
        -15.672804 -1.3042562 4.046359 -16.189814 -1.350106 4.0866194
        -16.726915 -1.3999381 4.1174865 -17.285658 -1.4542906 4.137394
        -17.867704 -1.5137783 4.1445866 -18.47484 -1.579108 4.1371
        -19.108957 -1.6510938 4.112751 -19.772064 -1.730681 4.069119
        -20.466274 -1.8189723 4.003532 -21.193817 -1.9172641 3.9130478
        -21.957031 -2.02709 3.7944288 -22.758373 -2.1502786 3.6441104
        -23.600443 -2.2890222 3.4581518 -24.485954 -2.4459724 3.2321787
        -25.417763 -2.6243541 2.9613044 -26.398832 -2.828114 2.6400285
        -27.432224 -3.0621119 2.262121 -28.521042 -3.3323631 1.820468
        -29.66838 -3.646348 1.3068807 -30.877205 -4.0133967 0.71183765
        -32.150185 -4.44516 0.024107473 -33.489334 -4.956156 -0.7697784
        -34.895386 -5.564374 -1.6862758 -36.366554 -6.2918468 -2.7457762
        -37.896393 -7.165045 -3.973642 -39.470215 -8.214798 -5.400981
        -41.059727 -9.475336 -7.0644608 -42.615356 -10.981653 -9.003808
        -44.05708 -12.764353 -11.255309 -45.265186 -14.840826 -13.838882
        -46.07534 -17.20213 -16.737103 -46.28411 -19.79588 -19.866238
        -45.673866 -22.508516 -23.044239 -44.063126 -25.153988 -25.967953
        -41.37958 -27.479374 -28.218285 -37.73572 -29.19733 -29.312113
        -33.469707 -30.045574 -28.803282 -29.113861 -29.85758 -26.405603
        -25.281954 -28.614231 -22.083595 -22.513672 -26.44992 -16.061775
        -21.144062 -23.608316 -8.7428255 -0.11501122 0.0012741089 0.9997654
        -0.19634438 -0.046902657 0.920372 -0.23930931 -0.0997982 0.8313465
        -0.2508583 -0.14984798 0.74643373 -0.2406311 -0.19281816 0.6734147
        -0.21775436 -0.22722244 0.6151056 -0.18926811 -0.25333738 0.57111704
        -10.29084 -0.7900224 3.1105242 -10.636574 -0.8075225 3.1893559
        -10.992095 -0.8256897 3.2682452 -11.35774 -0.84460056 3.346877
        -11.733899 -0.86434394 3.424898 -12.12102 -0.8850229 3.5019085
        -12.519623 -0.9067559 3.5774589 -12.930302 -0.92967933 3.6510403
        -13.353739 -0.9539491 3.7220771 -13.790709 -0.9797436 3.7899158
        -14.24209 -1.0072659 3.853816 -14.708869 -1.0367475 3.912935
        -15.192151 -1.0684518 3.9663155 -15.69316 -1.102678 4.0128703
        -16.21325 -1.1397674 4.0513673 -16.753897 -1.1801088 4.0804114
        -17.316713 -1.2241467 4.0984287 -17.903437 -1.2723906 4.1036496
        -18.515934 -1.3254274 4.0940924 -19.156204 -1.3839366 4.067546
        -19.826376 -1.4487094 4.021552 -20.528713 -1.5206726 3.9533873
        -21.265629 -1.6009208 3.8600368 -22.03969 -1.6907554 3.7381635
        -22.853634 -1.7917358 3.584067 -23.710415 -1.9057417 3.393623
        -24.61319 -2.03506 3.1622083 -25.565374 -2.1824906 2.8845968
        -26.570644 -2.351483 2.5548322 -27.632977 -2.5463192 2.1660597
        -28.756641 -2.7723436 1.7103132 -29.94623 -3.0362632 1.1782249
        -31.206636 -3.346531 0.558629 -32.542965 -3.7138224 -0.16201027
        -33.960297 -4.1516113 -1.0004208 -35.463097 -4.676837 -1.977659
        -37.053967 -5.310599 -3.1205873 -38.731293 -6.078762 -4.4635773
        -40.485138 -7.012231 -6.050063 -42.290726 -8.146457 -7.933092
        -44.098892 -9.51947 -10.173311 -45.82373 -11.167406 -12.831949
        -47.32911 -13.116222 -15.955639 -48.418594 -15.368416 -19.549782
        -48.83706 -17.884546 -23.539448 -48.296303 -20.5623 -27.722569
        -46.535797 -23.220427 -31.731087 -43.419075 -25.599962 -35.027454
        -39.041847 -27.395708 -36.967266 -33.79981 -28.321377 -36.9383
        -28.357658 -28.191078 -34.53961 -23.500021 -26.981668 -29.72018
        -19.917105 -24.841516 -22.797665 -18.025002 -22.039528 -14.341169
        -0.15948105 -0.031798363 1.1178207 -0.24933624 -0.081879616 1.0096912
        -0.2915554 -0.13437557 0.8933258 -0.29670525 -0.18204784 0.7859435
        -0.27772808 -0.22134352 0.69632673 -0.24599552 -0.25150967 0.62674594
        -0.20974064 -0.2733879 0.5756555 -10.29282 -0.6602692 3.0970623
        -10.638747 -0.67341614 3.1750326 -10.994525 -0.6870674 3.2530165
        -11.360501 -0.70128095 3.3307 -11.737078 -0.7161248 3.4077303
        -12.124719 -0.7316771 3.4837096 -12.523956 -0.7480283 3.558189
        -12.935406 -0.7652824 3.6306617 -13.359764 -0.78355825 3.7005534
        -13.797831 -0.80299217 3.7672126 -14.250507 -0.8237393 3.8298995
        -14.718806 -0.84597677 3.8877723 -15.203864 -0.86990625 3.9398746
        -15.706938 -0.8957575 3.9851184 -16.229418 -0.92379236 4.0222692
        -16.77283 -0.95431024 4.049928 -17.33883 -0.98765373 4.0665145
        -17.929222 -1.0242169 4.0702496 -18.54594 -1.0644544 4.0591364
        -19.191069 -1.1088943 4.030942 -19.866837 -1.1581529 3.9831798
        -20.57564 -1.2129554 3.9130824 -21.320034 -1.2741601 3.817576
        -22.102781 -1.3427929 3.693244 -22.926868 -1.420084 3.5362713
        -23.795534 -1.5075278 3.3423843 -24.712324 -1.6069475 3.1067495
        -25.681135 -1.7205864 2.8238592 -26.706264 -1.8512245 2.487369
        -27.79249 -2.002331 2.0898921 -28.945124 -2.178266 1.6227279
        -30.1701 -2.384539 1.0754822 -31.474052 -2.6281478 0.435546
        -32.864346 -2.9180098 -0.31267014 -34.348934 -3.2654915 -1.1888257
        -35.93586 -3.6850426 -2.2181702 -37.632072 -4.1949024 -3.4335532
        -39.44095 -4.8177834 -4.8778243 -41.357807 -5.581352 -6.606239
        -43.362488 -6.5181513 -8.687933 -45.40808 -7.664317 -11.204672
        -47.405636 -9.056138 -14.243845 -49.206314 -10.723128 -17.881542
        -50.58557 -12.676115 -22.150787 -51.239597 -14.88973 -26.992142
        -50.809765 -17.281153 -32.190697 -48.952053 -19.69169 -37.317936
        -45.456955 -21.88381 -41.715286 -40.39354 -23.568295 -44.565163
        -34.2096 -24.466713 -45.070152 -27.705168 -24.394312 -42.697643
        -21.845295 -23.325598 -37.375362 -17.479685 -21.40518 -29.523006
        -15.108145 -18.895592 -19.892838 -10.742435 -11.647661 -6.3810253
        -0.2994175 -0.14821815 1.0878868 -0.33880806 -0.19278622 0.9446087
        -0.33642578 -0.23138714 0.81614494 -0.3084259 -0.2616334 0.71173
        -0.26820374 -0.2835312 0.6326928 -0.22492218 -0.29832768 0.5760633
        -10.293254 -0.5280996 3.0866585 -10.639296 -0.53680944 3.1639977
        -10.995234 -0.54585665 3.2413197 -11.361425 -0.55528057 3.3183122
        -11.738277 -0.56512684 3.3946228 -12.126266 -0.57544863 3.4698548
        -12.525937 -0.5863071 3.543561 -12.937914 -0.5977725 3.615235
        -13.362912 -0.6099256 3.6843045 -13.801744 -0.6228587 3.7501192
        -14.255328 -0.6366772 3.8119402 -14.724698 -0.6515013 3.868927
        -15.211011 -0.66746825 3.9201229 -15.715549 -0.6847344 3.9644403
        -16.239733 -0.70347834 4.000643 -16.785116 -0.7239045 4.0273294
        -17.353401 -0.7462473 4.042915 -17.946424 -0.77077633 4.0456133
        -18.56618 -0.7978043 4.0334167 -19.214817 -0.8276939 4.0040784
        -19.894638 -0.8608705 3.955087 -20.60813 -0.89783466 3.8836455
        -21.357971 -0.9391818 3.7866364 -22.147064 -0.98562413 3.660582
        -22.978577 -1.0380182 3.5015857 -23.85598 -1.0974076 3.3052568
        -24.78311 -1.16507 3.0666075 -25.764242 -1.2425817 2.779915
        -26.804155 -1.3319037 2.4385395 -27.908253 -1.4354931 2.0346875
        -29.082666 -1.5564495 1.5590912 -30.334404 -1.6987102 1.0005586
        -31.671509 -1.8673021 0.34534732 -33.10317 -2.068668 -0.4237552
        -34.639706 -2.3110766 -1.3287472 -36.292168 -2.6051214 -2.3982644
        -38.07122 -2.9642973 -3.6700413 -39.98463 -3.4055936 -5.1939297
        -42.03257 -3.9499912 -7.0351105 -44.199524 -4.622601 -9.276472
        -46.44172 -5.4519773 -12.018229 -48.66938 -6.4678593 -15.371256
        -50.725094 -7.6962414 -19.4391 -52.36268 -9.1504 -24.282135
        -53.23832 -10.81714 -29.859295 -52.932415 -12.639074 -35.94998
        -51.025333 -14.498104 -42.07687 -47.237576 -16.21041 -47.474716
        -41.60739 -17.5461 -51.166084 -34.623474 -18.279123 -52.177933
        -27.20568 -18.25578 -49.848972 -20.483456 -17.45226 -44.083782
        -15.452456 -15.985235 -35.397594 -12.687529 -14.067802 -24.715412
        -12.249542 -11.937865 -13.043988 -0.3381977 -0.24385834 1.139513
        -0.37345314 -0.27218914 0.9748039 -0.36383057 -0.2948494 0.8305454
        -0.3281231 -0.31087852 0.7158556 -0.2811737 -0.3209045 0.6308999
        -0.23265743 -0.32623982 0.5713508 -10.29298 -0.3943234 3.0802734
        -10.639079 -0.3985395 3.157229 -10.9951 -0.4029232 3.23415
        -11.361403 -0.4074945 3.3107243 -11.738408 -0.4122768 3.3866003
        -12.126593 -0.41729715 3.4613814 -12.526508 -0.42258683 3.534622
        -12.938788 -0.4281818 3.6058164 -13.364157 -0.43412334 3.6743925
        -13.803432 -0.44045883 3.7397015 -14.257547 -0.44724232 3.8010051
        -14.727548 -0.45453554 3.8574634 -15.214601 -0.4624092 3.90812
        -15.720006 -0.47094384 3.9518871 -16.245201 -0.48023158 3.9875278
        -16.79176 -0.49037817 4.0136395 -17.361404 -0.5015049 4.0286345
        -17.956003 -0.51375175 4.030722 -18.577581 -0.527281 4.017889
        -19.228325 -0.54228145 3.9878774 -19.910587 -0.55897504 3.9381645
        -20.626913 -0.5776231 3.8659322 -21.380053 -0.5985368 3.7680376
        -22.172998 -0.62209 3.640965 -23.009033 -0.64873064 3.480767
        -23.891771 -0.67900693 3.2829828 -24.825237 -0.7135905 3.0425262
        -25.81394 -0.7533112 2.753541 -26.86297 -0.79920155 2.4092045
        -27.978138 -0.85255754 2.0014658 -29.166096 -0.91501623 1.5206976
        -30.434551 -0.98866 0.9552045 -31.792463 -1.0761521 0.2905169
        -33.25023 -1.1809136 -0.49161923 -34.819736 -1.3073455 -1.41472
        -36.514057 -1.4611053 -2.5096266 -38.346375 -1.6494305 -3.8172874
        -40.327515 -1.8814819 -5.392206 -42.461113 -2.168656 -7.3062263
        -44.73513 -2.5247283 -9.651583 -47.108475 -2.96558 -12.541224
        -49.491703 -3.508133 -16.10257 -51.722626 -4.1677933 -20.458939
        -53.54161 -4.953703 -25.69125 -54.578415 -5.8611093 -31.773573
        -54.371758 -6.8612065 -38.484417 -52.448387 -7.8910456 -45.315033
        -48.477135 -8.849644 -51.426365 -42.470905 -9.608544 -55.72644
        -34.943806 -10.039225 -57.112923 -26.899166 -10.05068 -54.828228
        -19.583576 -9.625952 -48.75742 -14.097273 -8.8295555 -39.48462
        -11.068476 -7.781659 -28.060778 -10.551439 -6.6165915 -15.624436
        -0.35748482 -0.35805655 1.1507664 -0.38853645 -0.36365366 0.97533417
        -0.3736782 -0.36538196 0.82430744 -0.33317947 -0.36374438 0.7062621
        -0.28253174 -0.35972536 0.62033033 -0.23151493 -0.3543347 0.5612111
        -10.292508 -0.25975728 3.0785108 -10.638613 -0.25945163 3.155342
        -10.99465 -0.25914234 3.2321334 -11.36098 -0.25882998 3.3085723
        -11.738023 -0.25851524 3.3843074 -12.126258 -0.25819886 3.4589424
        -12.52624 -0.25788188 3.5320318 -12.938607 -0.25756544 3.6030705
        -13.364081 -0.25725096 3.6714869 -13.80349 -0.25694022 3.736632
        -14.257765 -0.25663516 3.7977679 -14.727956 -0.25633827 3.854055
        -15.215237 -0.2560525 3.9045367 -15.720911 -0.25578138 3.9481256
        -16.246422 -0.25552896 3.983585 -16.79335 -0.2553003 4.0095105
        -17.363424 -0.25510123 4.0243144 -17.958527 -0.2549389 4.0262046
        -18.58069 -0.25482154 4.013166 -19.232113 -0.25475913 3.9829373
        -19.915165 -0.25476372 3.9329906 -20.632412 -0.2548495 3.860503
        -21.386627 -0.25503308 3.762322 -22.18084 -0.25533593 3.6349194
        -23.018366 -0.25577968 3.474331 -23.902876 -0.25639397 3.2760725
        -24.838457 -0.25721246 3.035025 -25.8297 -0.25827485 2.7452874
        -26.881811 -0.25962868 2.399974 -28.00073 -0.2613296 1.9909492
        -29.193314 -0.26344174 1.5084629 -30.467512 -0.26604137 0.94064355
        -31.83262 -0.26921523 0.27277523 -33.299465 -0.2730612 -0.5137613
        -34.88051 -0.27769005 -1.4430103 -36.58956 -0.28322333 -2.5465891
        -38.440742 -0.28979015 -3.866583 -40.44603 -0.29752707 -5.4591618
        -42.610348 -0.30657724 -7.3985534 -44.923042 -0.317089 -9.780398
        -47.344154 -0.32924303 -12.722321 -49.784527 -0.3432767 -16.357851
        -52.08056 -0.359554 -20.817816 -53.968025 -0.37862235 -26.191067
        -55.067345 -0.40121588 -32.45797 -54.902084 -0.42806724 -39.39754
        -52.979057 -0.45947254 -46.49055 -48.947067 -0.49484068 -52.871346
        -42.808037 -0.5331303 -57.405605 -35.084526 -0.57250464 -58.94197
        -26.810122 -0.6058438 -56.684746 -19.274406 -0.62747645 -50.509823
        -13.617014 -0.63437283 -41.025406 -10.487181 -0.62581974 -29.328922
        -9.937971 -0.6031737 -16.608337 -0.35227013 -0.47272274 1.1149883
        -0.38019753 -0.453502 0.9428215 -0.36336517 -0.4330938 0.79615784
        -0.32205772 -0.4133224 0.68282795 -0.27150726 -0.39527234 0.601388
        -0.22119427 -0.37944403 0.54623294 -10.292006 -0.1252181 3.0815763
        -10.638075 -0.12039194 3.158547 -10.994063 -0.11539107 3.235483
        -11.360335 -0.11019653 3.3120723 -11.737304 -0.10478625 3.387963
        -12.12545 -0.099134825 3.4627595 -12.525326 -0.09321295 3.5360148
        -12.937564 -0.08698699 3.6072242 -13.362887 -0.080418505 3.6758158
        -13.802116 -0.07346363 3.7411394 -14.256182 -0.06607236 3.802458
        -14.726128 -0.05818779 3.8589308 -15.213124 -0.0497452 3.9096022
        -15.718471 -0.04067105 3.9533834 -16.2436 -0.03088137 3.9890392
        -16.79009 -0.020280518 4.015165 -17.359665 -0.008758947 4.0301747
        -17.95419 0.0038093738 4.032277 -18.57569 0.017569803 4.019459
        -19.22635 0.032691434 3.9894633 -19.90853 0.049372308 3.939767
        -20.624765 0.067845605 3.8675532 -21.377815 0.08838877 3.7696786
        -22.170671 0.11133309 3.6426291 -23.006622 0.13708368 3.482458
        -23.889282 0.16612995 3.2847052 -24.822683 0.19907662 3.0442867
        -25.811338 0.23667422 2.755348 -26.860353 0.2798614 2.4110665
        -27.975548 0.32982516 2.0033948 -29.163597 0.38807356 1.5227075
        -30.432243 0.45654118 0.9573071 -31.790472 0.5377204 0.29272485
        -33.24874 0.6348396 -0.4893043 -34.819004 0.7520859 -1.4123073
        -36.514427 0.89488363 -2.5071568 -38.348324 1.0702217 -3.8148522
        -40.33167 1.2870052 -5.3899956 -42.46829 1.5563712 -7.304575
        -44.746376 1.891824 -9.651079 -47.12507 2.3089454 -12.54283
        -49.51513 2.82423 -16.107792 -51.75447 3.452474 -20.47007
        -53.58338 4.2018557 -25.711575 -54.63118 5.0663257 -31.807575
        -54.435585 6.0157685 -38.53765 -52.5216 6.9866977 -45.393753
        -48.55541 7.879064 -51.53649 -42.54676 8.566287 -55.871956
        -35.008705 8.92445 -57.293617 -26.944983 8.874164 -55.037857
        -19.603779 8.409016 -48.984314 -14.08939 7.5992875 -39.71366
        -11.035252 6.566682 -28.276966 -10.499796 5.4432635 -15.816251
        -0.3229885 -0.5677228 1.0363388 -0.349329 -0.52715564 0.88110924
        -0.33406448 -0.48790073 0.7493658 -0.2959919 -0.45285368 0.64816475
        -0.2492714 -0.42312372 0.5760727 -0.20272541 -0.3987168 0.5278835
        -10.291308 0.00847761 3.0892646 -10.637292 0.017793635 3.1666331
        -10.993166 0.027453866 3.2439852 -11.359289 0.037496552 3.3210075
        -11.736072 0.047966138 3.3973484 -12.123985 0.058914 3.4726105
        -12.523578 0.070399344 3.5463467 -12.935471 0.08249016 3.6180508
        -13.36038 0.09526417 3.6871502 -13.799117 0.10881023 3.7529948
        -14.252602 0.12322967 3.8148453 -14.721866 0.13863786 3.8718617
        -15.208065 0.15516597 3.923087 -15.712485 0.17296347 3.9674332
        -16.236544 0.19220074 4.003665 -16.781794 0.21307209 4.0303802
        -17.349936 0.2358002 4.045995 -17.94281 0.26064077 4.048723
        -18.56241 0.28788957 4.036557 -19.210884 0.31788996 4.0072503
        -19.890535 0.3510432 3.9582925 -20.603853 0.3878222 3.8868873
        -21.35352 0.42878896 3.7899184 -22.142437 0.4746139 3.6639097
        -22.973783 0.5261108 3.5049658 -23.851028 0.5842657 3.3086991
        -24.77803 0.6502909 3.0701246 -25.759068 0.7256851 2.7835217
        -26.79895 0.81231856 2.4422555 -27.903101 0.9125416 2.0385354
        -29.077698 1.0293312 1.5630934 -30.3298 1.1664829 1.0047417
        -31.667522 1.3288625 0.34973225 -33.10016 1.5227332 -0.41916227
        -34.638165 1.756168 -1.3239686 -36.292763 2.0395522 -2.3933792
        -38.07486 2.3861666 -3.6652308 -39.992516 2.8127933 -5.1895533
        -42.04625 3.3402205 -7.0318093 -44.220978 3.9933805 -9.275363
        -46.473335 4.8006554 -12.021123 -48.71395 5.79156 -15.381004
        -50.785545 6.9917326 -19.45998 -52.441734 8.413859 -24.320261
        -53.33777 10.043879 -29.922863 -53.052135 11.82353 -36.04918
        -51.161926 13.634289 -42.223015 -47.382996 15.292872 -47.678368
        -41.748688 16.571135 -51.43403 -34.744816 17.247246 -52.50922
        -27.291485 17.175274 -50.232464 -20.521835 16.339092 -44.498425
        -15.439154 14.860134 -35.816307 -12.627604 12.953287 -25.111362
        -12.155462 10.855327 -13.396372 -0.27565956 -0.62795925 0.92907524
        -0.30153656 -0.573895 0.800457 -0.29048157 -0.52253866 0.69101715
        -0.2587204 -0.47759795 0.60702705 -0.21866798 -0.440269 0.5475235
        -0.17823696 -0.4102831 0.50822663 -10.289908 0.14051345 3.1009703
        -10.635748 0.15426014 3.178985 -10.991431 0.16851756 3.2570138
        -11.357308 0.18334273 3.3347423 -11.733779 0.19880207 3.4118176
        -12.121309 0.21497221 3.487842 -12.520429 0.23194161 3.5623667
        -12.931753 0.24981163 3.6348844 -13.35598 0.26869854 3.7048213
        -13.793907 0.2887348 3.7715251 -14.246434 0.31007165 3.8342566
        -14.714576 0.3328812 3.892174 -15.199467 0.35735923 3.9443202
        -15.702364 0.38372838 3.989608 -16.224657 0.41224226 4.026802
        -16.767872 0.44319037 4.054505 -17.333664 0.47690365 4.0711355
        -17.923834 0.51376206 4.074915 -18.540321 0.5542038 4.063847
        -19.185207 0.5987371 4.035701 -19.860727 0.64795524 3.9879885
        -20.569273 0.7025557 3.917945 -21.31341 0.76336414 3.8224988
        -22.095901 0.8313652 3.6982334 -22.91974 0.90774786 3.541339
        -23.78818 0.9939506 3.347543 -24.704777 1.0917329 3.1120172
        -25.67345 1.2032635 2.8292575 -26.698534 1.3312359 2.4929242