# vtk DataFile Version 3.0
T01 + IGRF magnetic field in GSW coordinates
ASCII
DATASET STRUCTURED_GRID
DIMENSIONS     61    21    21
POINTS    26901 float
     -50.000000     -10.000000     -10.000000
     -49.000000     -10.000000     -10.000000
     -48.000000     -10.000000     -10.000000
     -47.000000     -10.000000     -10.000000
     -46.000000     -10.000000     -10.000000
     -45.000000     -10.000000     -10.000000
     -44.000000     -10.000000     -10.000000
     -43.000000     -10.000000     -10.000000
     -42.000000     -10.000000     -10.000000
     -41.000000     -10.000000     -10.000000
     -40.000000     -10.000000     -10.000000
     -39.000000     -10.000000     -10.000000
     -38.000000     -10.000000     -10.000000
     -37.000000     -10.000000     -10.000000
     -36.000000     -10.000000     -10.000000
     -35.000000     -10.000000     -10.000000
     -34.000000     -10.000000     -10.000000
     -33.000000     -10.000000     -10.000000
     -32.000000     -10.000000     -10.000000
     -31.000000     -10.000000     -10.000000
     -30.000000     -10.000000     -10.000000
     -29.000000     -10.000000     -10.000000
     -28.000000     -10.000000     -10.000000
     -27.000000     -10.000000     -10.000000
     -26.000000     -10.000000     -10.000000
     -25.000000     -10.000000     -10.000000
     -24.000000     -10.000000     -10.000000
     -23.000000     -10.000000     -10.000000
     -22.000000     -10.000000     -10.000000
     -21.000000     -10.000000     -10.000000
     -20.000000     -10.000000     -10.000000
     -19.000000     -10.000000     -10.000000
     -18.000000     -10.000000     -10.000000
     -17.000000     -10.000000     -10.000000
     -16.000000     -10.000000     -10.000000
     -15.000000     -10.000000     -10.000000
     -14.000000     -10.000000     -10.000000
     -13.000000     -10.000000     -10.000000
     -12.000000     -10.000000     -10.000000
     -11.000000     -10.000000     -10.000000
     -10.000000     -10.000000     -10.000000
      -9.000000     -10.000000     -10.000000
      -8.000000     -10.000000     -10.000000
      -7.000000     -10.000000     -10.000000
      -6.000000     -10.000000     -10.000000
      -5.000000     -10.000000     -10.000000
      -4.000000     -10.000000     -10.000000
      -3.000000     -10.000000     -10.000000
      -2.000000     -10.000000     -10.000000
      -1.000000     -10.000000     -10.000000
       0.000000     -10.000000     -10.000000
       1.000000     -10.000000     -10.000000
       2.000000     -10.000000     -10.000000
       3.000000     -10.000000     -10.000000
       4.000000     -10.000000     -10.000000
       5.000000     -10.000000     -10.000000
       6.000000     -10.000000     -10.000000
       7.000000     -10.000000     -10.000000
       8.000000     -10.000000     -10.000000
       9.000000     -10.000000     -10.000000
      10.000000     -10.000000     -10.000000
     -50.000000      -9.000000     -10.000000
     -49.000000      -9.000000     -10.000000
     -48.000000      -9.000000     -10.000000
     -47.000000      -9.000000     -10.000000
     -46.000000      -9.000000     -10.000000
     -45.000000      -9.000000     -10.000000
     -44.000000      -9.000000     -10.000000
     -43.000000      -9.000000     -10.000000
     -42.000000      -9.000000     -10.000000
     -41.000000      -9.000000     -10.000000
     -40.000000      -9.000000     -10.000000
     -39.000000      -9.000000     -10.000000
     -38.000000      -9.000000     -10.000000
     -37.000000      -9.000000     -10.000000
     -36.000000      -9.000000     -10.000000
     -35.000000      -9.000000     -10.000000
     -34.000000      -9.000000     -10.000000
     -33.000000      -9.000000     -10.000000
     -32.000000      -9.000000     -10.000000
     -31.000000      -9.000000     -10.000000
     -30.000000      -9.000000     -10.000000
     -29.000000      -9.000000     -10.000000
     -28.000000      -9.000000     -10.000000
     -27.000000      -9.000000     -10.000000
     -26.000000      -9.000000     -10.000000
     -25.000000      -9.000000     -10.000000
     -24.000000      -9.000000     -10.000000
     -23.000000      -9.000000     -10.000000
     -22.000000      -9.000000     -10.000000
     -21.000000      -9.000000     -10.000000
     -20.000000      -9.000000     -10.000000
     -19.000000      -9.000000     -10.000000
     -18.000000      -9.000000     -10.000000
     -17.000000      -9.000000     -10.000000
     -16.000000      -9.000000     -10.000000
     -15.000000      -9.000000     -10.000000
     -14.000000      -9.000000     -10.000000
     -13.000000      -9.000000     -10.000000
     -12.000000      -9.000000     -10.000000
     -11.000000      -9.000000     -10.000000
     -10.000000      -9.000000     -10.000000
      -9.000000      -9.000000     -10.000000
      -8.000000      -9.000000     -10.000000
      -7.000000      -9.000000     -10.000000
      -6.000000      -9.000000     -10.000000
      -5.000000      -9.000000     -10.000000
      -4.000000      -9.000000     -10.000000
      -3.000000      -9.000000     -10.000000
      -2.000000      -9.000000     -10.000000
      -1.000000      -9.000000     -10.000000
       0.000000      -9.000000     -10.000000
       1.000000      -9.000000     -10.000000
       2.000000      -9.000000     -10.000000
       3.000000      -9.000000     -10.000000
       4.000000      -9.000000     -10.000000
       5.000000      -9.000000     -10.000000
       6.000000      -9.000000     -10.000000
       7.000000      -9.000000     -10.000000
       8.000000      -9.000000     -10.000000
       9.000000      -9.000000     -10.000000
      10.000000      -9.000000     -10.000000
     -50.000000      -8.000000     -10.000000
     -49.000000      -8.000000     -10.000000
     -48.000000      -8.000000     -10.000000
     -47.000000      -8.000000     -10.000000
     -46.000000      -8.000000     -10.000000
     -45.000000      -8.000000     -10.000000
     -44.000000      -8.000000     -10.000000
     -43.000000      -8.000000     -10.000000
     -42.000000      -8.000000     -10.000000
     -41.000000      -8.000000     -10.000000
     -40.000000      -8.000000     -10.000000
     -39.000000      -8.000000     -10.000000
     -38.000000      -8.000000     -10.000000
     -37.000000      -8.000000     -10.000000
     -36.000000      -8.000000     -10.000000
     -35.000000      -8.000000     -10.000000
     -34.000000      -8.000000     -10.000000
     -33.000000      -8.000000     -10.000000
     -32.000000      -8.000000     -10.000000
     -31.000000      -8.000000     -10.000000
     -30.000000      -8.000000     -10.000000
     -29.000000      -8.000000     -10.000000
     -28.000000      -8.000000     -10.000000
     -27.000000      -8.000000     -10.000000
     -26.000000      -8.000000     -10.000000
     -25.000000      -8.000000     -10.000000
     -24.000000      -8.000000     -10.000000
     -23.000000      -8.000000     -10.000000
     -22.000000      -8.000000     -10.000000
     -21.000000      -8.000000     -10.000000
     -20.000000      -8.000000     -10.000000
     -19.000000      -8.000000     -10.000000
     -18.000000      -8.000000     -10.000000
     -17.000000      -8.000000     -10.000000
     -16.000000      -8.000000     -10.000000
     -15.000000      -8.000000     -10.000000
     -14.000000      -8.000000     -10.000000
     -13.000000      -8.000000     -10.000000
     -12.000000      -8.000000     -10.000000
     -11.000000      -8.000000     -10.000000
     -10.000000      -8.000000     -10.000000
      -9.000000      -8.000000     -10.000000
      -8.000000      -8.000000     -10.000000
      -7.000000      -8.000000     -10.000000
      -6.000000      -8.000000     -10.000000
      -5.000000      -8.000000     -10.000000
      -4.000000      -8.000000     -10.000000
      -3.000000      -8.000000     -10.000000
      -2.000000      -8.000000     -10.000000
      -1.000000      -8.000000     -10.000000
       0.000000      -8.000000     -10.000000
       1.000000      -8.000000     -10.000000
       2.000000      -8.000000     -10.000000
       3.000000      -8.000000     -10.000000
       4.000000      -8.000000     -10.000000
       5.000000      -8.000000     -10.000000
       6.000000      -8.000000     -10.000000
       7.000000      -8.000000     -10.000000
       8.000000      -8.000000     -10.000000
       9.000000      -8.000000     -10.000000
      10.000000      -8.000000     -10.000000
     -50.000000      -7.000000     -10.000000
     -49.000000      -7.000000     -10.000000
     -48.000000      -7.000000     -10.000000
     -47.000000      -7.000000     -10.000000
     -46.000000      -7.000000     -10.000000
     -45.000000      -7.000000     -10.000000
     -44.000000      -7.000000     -10.000000
     -43.000000      -7.000000     -10.000000
     -42.000000      -7.000000     -10.000000
     -41.000000      -7.000000     -10.000000
     -40.000000      -7.000000     -10.000000
     -39.000000      -7.000000     -10.000000
     -38.000000      -7.000000     -10.000000
     -37.000000      -7.000000     -10.000000
     -36.000000      -7.000000     -10.000000
     -35.000000      -7.000000     -10.000000
     -34.000000      -7.000000     -10.000000
     -33.000000      -7.000000     -10.000000
     -32.000000      -7.000000     -10.000000
     -31.000000      -7.000000     -10.000000
     -30.000000      -7.000000     -10.000000
     -29.000000      -7.000000     -10.000000
     -28.000000      -7.000000     -10.000000
     -27.000000      -7.000000     -10.000000
     -26.000000      -7.000000     -10.000000
     -25.000000      -7.000000     -10.000000
[...]
POINT_DATA    26901
VECTORS B_total float
  -1.0294227E+01  -1.5121384E+00   3.1757209E+00
  -1.0638033E+01  -1.5535889E+00   3.2637305E+00
  -1.0990829E+01  -1.5965496E+00   3.3524683E+00
  -1.1352813E+01  -1.6411877E+00   3.4416203E+00
  -1.1724225E+01  -1.6876960E+00   3.5308299E+00
  -1.2105347E+01  -1.7362977E+00   3.6196926E+00
  -1.2496512E+01  -1.7872488E+00   3.7077508E+00
  -1.2898116E+01  -1.8408422E+00   3.7944865E+00
  -1.3310616E+01  -1.8974111E+00   3.8793137E+00
  -1.3734546E+01  -1.9573337E+00   3.9615700E+00
  -1.4170514E+01  -2.0210371E+00   4.0405064E+00
  -1.4619215E+01  -2.0890028E+00   4.1152773E+00
  -1.5081432E+01  -2.1617723E+00   4.1849289E+00
  -1.5558035E+01  -2.2399528E+00   4.2483873E+00
  -1.6049974E+01  -2.3242230E+00   4.3044467E+00
  -1.6558290E+01  -2.4153438E+00   4.3517575E+00
  -1.7084091E+01  -2.5141637E+00   4.3888178E+00
  -1.7628548E+01  -2.6216328E+00   4.4139633E+00
  -1.8192871E+01  -2.7388124E+00   4.4253640E+00
  -1.8778292E+01  -2.8668942E+00   4.4210224E+00
  -1.9386042E+01  -3.0072157E+00   4.3987761E+00
  -2.0017319E+01  -3.1612859E+00   4.3563066E+00
  -2.0673246E+01  -3.3308129E+00   4.2911515E+00
  -2.1354843E+01  -3.5177383E+00   4.2007198E+00
  -2.2062971E+01  -3.7242773E+00   4.0823126E+00
  -2.2798275E+01  -3.9529696E+00   3.9331467E+00
  -2.3561123E+01  -4.2067342E+00   3.7503729E+00
  -2.4351480E+01  -4.4889321E+00   3.5311141E+00
  -2.5168812E+01  -4.8034468E+00   3.2725048E+00
  -2.6011879E+01  -5.1547489E+00   2.9717593E+00
  -2.6878555E+01  -5.5479960E+00   2.6262844E+00
  -2.7765535E+01  -5.9891052E+00   2.2338440E+00
  -2.8668056E+01  -6.4848337E+00   1.7928076E+00
  -2.9579578E+01  -7.0428276E+00   1.3024824E+00
  -3.0491465E+01  -7.6716223E+00   7.6352906E-01
  -3.1392689E+01  -8.3805161E+00   1.7844054E-01
  -3.2269600E+01  -9.1792879E+00  -4.4793496E-01
  -3.3105682E+01  -1.0077575E+01  -1.1078769E+00
  -3.3881447E+01  -1.1083847E+01  -1.7902837E+00
  -3.4574303E+01  -1.2203714E+01  -2.4801121E+00
  -3.5158695E+01  -1.3437540E+01  -3.1577001E+00
  -3.5606586E+01  -1.4777220E+01  -3.7977240E+00
  -3.5888874E+01  -1.6202381E+01  -4.3676844E+00
  -3.5978367E+01  -1.7676533E+01  -4.8259144E+00
  -3.5855011E+01  -1.9144136E+01  -5.1195641E+00
  -3.5513596E+01  -2.0529909E+01  -5.1835456E+00
  -3.4973228E+01  -2.1741854E+01  -4.9417586E+00
  -3.4286304E+01  -2.2678879E+01  -4.3115745E+00
  -3.3543819E+01  -2.3242556E+01  -3.2115710E+00
   1.7340851E-01  -2.5432491E-01   4.4735432E-01
   1.6724396E-01  -2.1695805E-01   4.7826147E-01
   1.4885521E-01  -1.8422604E-01   5.0745535E-01
   1.2085629E-01  -1.5946102E-01   5.3183675E-01
   8.7242603E-02  -1.4457893E-01   5.4936051E-01
   5.2384853E-02  -1.3983536E-01   5.5934834E-01
   2.0075798E-02  -1.4402199E-01   5.6237161E-01
  -7.0757866E-03  -1.5501785E-01   5.5985069E-01
  -2.7808189E-02  -1.7037773E-01   5.5356473E-01
  -4.2028427E-02  -1.8782043E-01   5.4522783E-01
  -5.0425529E-02  -2.0553970E-01   5.3623730E-01
  -5.4111958E-02  -2.2227287E-01   5.2757627E-01
  -1.0338349E+01  -1.4085257E+00   3.1674011E+00
  -1.0683628E+01  -1.4465129E+00   3.2535441E+00
  -1.1038055E+01  -1.4858811E+00   3.3402467E+00
  -1.1401858E+01  -1.5267829E+00   3.4271908E+00
  -1.1775304E+01  -1.5693958E+00   3.5140145E+00
  -1.2158707E+01  -1.6139246E+00   3.6003084E+00
  -1.2552437E+01  -1.6606052E+00   3.6856101E+00
  -1.2956925E+01  -1.7097070E+00   3.7693961E+00
  -1.3372676E+01  -1.7615378E+00   3.8510737E+00
  -1.3800264E+01  -1.8164464E+00   3.9299748E+00
  -1.4240355E+01  -1.8748289E+00   4.0053420E+00
  -1.4693695E+01  -1.9371319E+00   4.0763197E+00
  -1.5161126E+01  -2.0038590E+00   4.1419430E+00
  -1.5643583E+01  -2.0755763E+00   4.2011232E+00
  -1.6142090E+01  -2.1529207E+00   4.2526374E+00
  -1.6657763E+01  -2.2366068E+00   4.2951145E+00
  -1.7191795E+01  -2.3274374E+00   4.3270249E+00
  -1.7745451E+01  -2.4263146E+00   4.3466716E+00
  -1.8320055E+01  -2.5342557E+00   4.3521833E+00
  -1.8916962E+01  -2.6524088E+00   4.3415093E+00
  -1.9537546E+01  -2.7820754E+00   4.3124208E+00
  -2.0183167E+01  -2.9247363E+00   4.2625136E+00
  -2.0855150E+01  -3.0820851E+00   4.1892142E+00
  -2.1554750E+01  -3.2560692E+00   4.0897918E+00
  -2.2283102E+01  -3.4489350E+00   3.9613624E+00
  -2.3041178E+01  -3.6632922E+00   3.8009028E+00
  -2.3829733E+01  -3.9021802E+00   3.6052611E+00
  -2.4649199E+01  -4.1691542E+00   3.3711674E+00
  -2.5499569E+01  -4.4683795E+00   3.0952606E+00
  -2.6380238E+01  -4.8047485E+00   2.7741301E+00
  -2.7289804E+01  -5.1840100E+00   2.4043932E+00
  -2.8225811E+01  -5.6129050E+00   1.9828217E+00
  -2.9184446E+01  -6.0993261E+00   1.5065253E+00
  -3.0160219E+01  -6.6524472E+00   9.7320974E-01
  -3.1145576E+01  -7.2828236E+00   3.8147509E-01
  -3.2130482E+01  -8.0023813E+00  -2.6881757E-01
  -3.3101933E+01  -8.8242178E+00  -9.7616923E-01
  -3.4043354E+01  -9.7620344E+00  -1.7370127E+00
  -3.4933842E+01  -1.0829068E+01  -2.5451927E+00
  -3.5747284E+01  -1.2036212E+01  -3.3911910E+00
  -3.6451488E+01  -1.3389159E+01  -4.2608447E+00
  -3.7007713E+01  -1.4884362E+01  -5.1332474E+00
  -3.7371475E+01  -1.6503986E+01  -5.9775400E+00
  -3.7495689E+01  -1.8210344E+01  -6.7487445E+00
  -3.7337479E+01  -1.9941063E+01  -7.3834300E+00
  -3.6869255E+01  -2.1606861E+01  -7.7968626E+00
  -3.6093197E+01  -2.3094193E+01  -7.8840251E+00
  -3.5056061E+01  -2.4274590E+01  -7.5265775E+00
  -3.3858994E+01  -2.5020950E+01  -6.6062799E+00
  -3.2656620E+01  -2.5227823E+01  -5.0223389E+00
  -6.2289934E+00  -5.1648350E+00  -1.5634537E-01
   1.8070889E-01  -1.4507103E-01   5.2988338E-01
   1.4185524E-01  -1.1666870E-01   5.6234455E-01
   9.6302032E-02  -1.0166931E-01   5.8411503E-01
   5.0374985E-02  -9.9940300E-02   5.9457874E-01
   9.2535019E-03  -1.0936451E-01   5.9508061E-01
  -2.3808479E-02  -1.2672806E-01   5.8812189E-01
  -4.7609329E-02  -1.4859390E-01   5.7655853E-01
  -6.2556744E-02  -1.7198563E-01   5.6295466E-01
  -7.0022106E-02  -1.9470978E-01   5.4923987E-01
  -7.1770668E-02  -2.1539068E-01   5.3665382E-01
  -1.0370299E+01  -1.2987211E+00   3.1567211E+00
  -1.0716673E+01  -1.3330292E+00   3.2411385E+00
  -1.1072337E+01  -1.3685814E+00   3.3259714E+00
  -1.1437543E+01  -1.4055164E+00   3.4108982E+00
  -1.1812585E+01  -1.4439945E+00   3.4955542E+00
  -1.2197807E+01  -1.4842020E+00   3.5795274E+00
  -1.2593612E+01  -1.5263525E+00   3.6623521E+00
  -1.3000466E+01  -1.5706911E+00   3.7435019E+00
  -1.3418914E+01  -1.6174978E+00   3.8223815E+00
  -1.3849575E+01  -1.6670909E+00   3.8983181E+00
  -1.4293159E+01  -1.7198317E+00   3.9705496E+00
  -1.4750467E+01  -1.7761290E+00   4.0382147E+00
  -1.5222395E+01  -1.8364450E+00   4.1003404E+00
  -1.5709939E+01  -1.9013004E+00   4.1558290E+00
  -1.6214191E+01  -1.9712831E+00   4.2034445E+00
  -1.6736347E+01  -2.0470555E+00   4.2417984E+00
  -1.7277679E+01  -2.1293652E+00   4.2693419E+00
  -1.7839554E+01  -2.2190571E+00   4.2843499E+00
  -1.8423397E+01  -2.3170886E+00   4.2849145E+00
  -1.9030693E+01  -2.4245484E+00   4.2689409E+00
  -1.9662966E+01  -2.5426803E+00   4.2341385E+00
  -2.0321753E+01  -2.6729109E+00   4.1780243E+00
  -2.1008583E+01  -2.8168862E+00   4.0979209E+00
  -2.1724962E+01  -2.9765167E+00   3.9909580E+00
  -2.2472324E+01  -3.1540318E+00   3.8540714E+00
  -2.3252020E+01  -3.3520467E+00   3.6840003E+00
  -2.4065226E+01  -3.5736461E+00   3.4772801E+00
  -2.4912903E+01  -3.8224826E+00   3.2302399E+00
  -2.5795679E+01  -4.1028991E+00   2.9389968E+00
  -2.6713715E+01  -4.4200726E+00   2.5994701E+00
  -2.7666519E+01  -4.7801876E+00   2.2074127E+00
  -2.8652718E+01  -5.1906376E+00   1.7584776E+00
  -2.9669788E+01  -5.6602511E+00   1.2483188E+00
  -3.0713707E+01  -6.1995268E+00   6.7273146E-01
  -3.1778534E+01  -6.8208513E+00   2.7809821E-02
  -3.2855881E+01  -7.5386314E+00  -6.8988377E-01
  -3.3934166E+01  -8.3692389E+00  -1.4831295E+00
  -3.4997578E+01  -9.3305950E+00  -2.3538027E+00
  -3.6024609E+01  -1.0441156E+01  -3.3024199E+00
  -3.6986210E+01  -1.1717999E+01  -4.3271914E+00
  -3.7843616E+01  -1.3173625E+01  -5.4221554E+00
  -3.8546474E+01  -1.4811152E+01  -6.5738058E+00
  -3.9032463E+01  -1.6617929E+01  -7.7558122E+00
  -3.9230087E+01  -1.8557890E+01  -8.9218731E+00
  -3.9066856E+01  -2.0564083E+01  -9.9977865E+00
  -3.8484249E+01  -2.2533800E+01  -1.0875344E+01
  -3.7459137E+01  -2.4329943E+01  -1.1411928E+01
  -3.6027164E+01  -2.5791492E+01  -1.1439807E+01
  -3.4300522E+01  -2.6754980E+01  -1.0787058E+01
  -3.2469875E+01  -2.7083265E+01  -9.3069401E+00
  -3.0784063E+01  -2.6693977E+01  -6.9069610E+00
  -7.1354856E+00  -6.3998909E+00  -4.5494080E-01
   1.6423416E-01  -6.5780640E-02   6.0985184E-01
   1.0291862E-01  -5.2183151E-02   6.3589430E-01
   4.2993546E-02  -5.5534363E-02   6.4521503E-01
  -8.5821152E-03  -7.2359085E-02   6.4054966E-01
  -4.7962189E-02  -9.7970009E-02   6.2616825E-01
  -7.4318886E-02  -1.2774277E-01   6.0652471E-01
  -8.8944435E-02  -1.5795231E-01   5.8531475E-01
  -9.4236374E-02  -1.8608952E-01   5.6510603E-01
  -9.2852592E-02  -2.1078396E-01   5.4734981E-01
  -1.0392015E+01  -1.1830657E+00   3.1433337E+00
  -1.0739172E+01  -1.2135026E+00   3.2261548E+00
  -1.1095745E+01  -1.2450418E+00   3.3092709E+00
  -1.1462007E+01  -1.2778063E+00   3.3923581E+00
  -1.1838275E+01  -1.3119396E+00   3.4750507E+00
  -1.2224922E+01  -1.3476074E+00   3.5569353E+00
  -1.2622380E+01  -1.3850007E+00   3.6375456E+00
  -1.3031151E+01  -1.4243385E+00   3.7163539E+00
  -1.3451813E+01  -1.4658712E+00   3.7927639E+00
  -1.3885024E+01  -1.5098845E+00   3.8661010E+00
  -1.4331537E+01  -1.5567025E+00   3.9356015E+00
  -1.4792203E+01  -1.6066930E+00   4.0004015E+00
  -1.5267969E+01  -1.6602727E+00   4.0595236E+00
  -1.5759889E+01  -1.7179124E+00   4.1118631E+00
  -1.6269121E+01  -1.7801452E+00   4.1561756E+00
  -1.6796930E+01  -1.8475738E+00   4.1910625E+00
  -1.7344671E+01  -1.9208814E+00   4.2149568E+00
  -1.7913803E+01  -2.0008438E+00   4.2261124E+00
  -1.8505861E+01  -2.0883453E+00   4.2225924E+00
  -1.9122454E+01  -2.1843965E+00   4.2022605E+00
  -1.9765253E+01  -2.2901602E+00   4.1627731E+00
  -2.0435976E+01  -2.4069800E+00   4.1015749E+00
  -2.1136364E+01  -2.5364180E+00   4.0158896E+00
  -2.1868183E+01  -2.6803031E+00   3.9027171E+00
  -2.2633183E+01  -2.8407874E+00   3.7588170E+00
  -2.3433098E+01  -3.0204215E+00   3.5806949E+00
  -2.4269579E+01  -3.2222433E+00   3.3645794E+00
  -2.5144163E+01  -3.4498911E+00   3.1063924E+00
  -2.6058184E+01  -3.7077427E+00   2.8017204E+00
  -2.7012672E+01  -4.0010872E+00   2.4457810E+00
  -2.8008204E+01  -4.3363342E+00   2.0334096E+00
  -2.9044710E+01  -4.7212677E+00   1.5590419E+00
  -3.0121241E+01  -5.1653447E+00   1.0167155E+00
  -3.1235653E+01  -5.6800327E+00   4.0005288E-01
  -3.2384159E+01  -6.2791495E+00  -2.9776967E-01
  -3.3560715E+01  -6.9791622E+00  -1.0840993E+00
  -3.4756042E+01  -7.7993298E+00  -1.9669151E+00
  -3.5956127E+01  -8.7615032E+00  -2.9548573E+00
  -3.7140064E+01  -9.8893414E+00  -4.0569897E+00
  -3.8276978E+01  -1.1206474E+01  -5.2818089E+00
  -3.9322319E+01  -1.2733224E+01  -6.6348815E+00
  -4.0214016E+01  -1.4481266E+01  -8.1141663E+00
  -4.0870121E+01  -1.6445915E+01  -9.7022362E+00
  -4.1190361E+01  -1.8596264E+01  -1.1355215E+01
  -4.1065022E+01  -2.0864450E+01  -1.2989630E+01
  -4.0394169E+01  -2.3137186E+01  -1.4470812E+01
  -3.9117558E+01  -2.5254080E+01  -1.5608793E+01
  -3.7250725E+01  -2.7018652E+01  -1.6169186E+01
  -3.4915321E+01  -2.8224855E+01  -1.5903606E+01
  -3.2347507E+01  -2.8696266E+01  -1.4596549E+01
  -2.9871969E+01  -2.8326998E+01  -1.2115099E+01
  -2.7842358E+01  -2.7108286E+01  -8.4405909E+00
   1.8647766E-01  -9.3784332E-03   6.8058777E-01
   1.0492611E-01   5.8746338E-04   7.1002102E-01
   2.7917862E-02  -1.0315895E-02   7.1524429E-01
  -3.5481453E-02  -3.6760330E-02   7.0137644E-01
  -8.1056595E-02  -7.2247505E-02   6.7540026E-01
  -1.0883713E-01  -1.1084080E-01   6.4400578E-01
  -1.2155342E-01  -1.4815712E-01   6.1233139E-01
  -1.2303543E-01  -1.8154192E-01   5.8358926E-01
  -1.1709213E-01  -2.0980263E-01   5.5932552E-01
  -1.0405567E+01  -1.0619606E+00   3.1277268E+00
  -1.0753260E+01  -1.0883543E+00   3.2090890E+00
  -1.1110478E+01  -1.1157036E+00   3.2906470E+00
  -1.1477514E+01  -1.1441159E+00   3.3720772E+00
  -1.1854706E+01  -1.1737161E+00   3.4530127E+00
  -1.2242452E+01  -1.2046489E+00   3.5330412E+00
  -1.2641210E+01  -1.2370814E+00   3.6116965E+00
  -1.3051510E+01  -1.2712051E+00   3.6884513E+00
  -1.3473962E+01  -1.3072394E+00   3.7627101E+00
  -1.3909263E+01  -1.3454344E+00   3.8337989E+00
  -1.4358204E+01  -1.3860753E+00   3.9009540E+00
  -1.4821675E+01  -1.4294852E+00   3.9633102E+00
  -1.5300676E+01  -1.4760315E+00   4.0198884E+00
  -1.5796311E+01  -1.5261304E+00   4.0695820E+00
  -1.6309799E+01  -1.5802540E+00   4.1111403E+00
  -1.6842470E+01  -1.6389381E+00   4.1431561E+00
  -1.7395760E+01  -1.7027922E+00   4.1640511E+00
  -1.7971209E+01  -1.7725110E+00   4.1720614E+00
  -1.8570457E+01  -1.8488902E+00   4.1652265E+00
  -1.9195238E+01  -1.9328446E+00   4.1413741E+00
  -1.9847364E+01  -2.0254316E+00   4.0981145E+00
  -2.0528723E+01  -2.1278818E+00   4.0328264E+00
  -2.1241278E+01  -2.2416344E+00   3.9426441E+00
  -2.1987041E+01  -2.3683867E+00   3.8244448E+00
  -2.2768089E+01  -2.5101531E+00   3.6748230E+00
  -2.3586540E+01  -2.6693363E+00   3.4900620E+00
  -2.4444538E+01  -2.8488288E+00   3.2660933E+00
  -2.5344217E+01  -3.0521233E+00   2.9984412E+00
  -2.6287663E+01  -3.2834685E+00   2.6821632E+00
  -2.7276840E+01  -3.5480537E+00   2.3117752E+00
  -2.8313501E+01  -3.8522477E+00   1.8811677E+00
  -2.9399036E+01  -4.2038889E+00   1.3835089E+00
  -3.0534306E+01  -4.6126432E+00   8.1111062E-01
  -3.1719378E+01  -5.0904226E+00   1.5524440E-01
  -3.2953098E+01  -5.6518459E+00  -5.9413815E-01
  -3.4232418E+01  -6.3146973E+00  -1.4487934E+00
  -3.5551247E+01  -7.1002936E+00  -2.4226775E+00
  -3.6898563E+01  -8.0335598E+00  -3.5324059E+00
  -3.8255455E+01  -9.1425467E+00  -4.7973914E+00
  -3.9590881E+01  -1.0456940E+01  -6.2390757E+00
  -4.0856026E+01  -1.2004901E+01  -7.8782291E+00
  -4.1978008E+01  -1.3807560E+01  -9.7291107E+00
  -4.2854633E+01  -1.5870382E+01  -1.1788936E+01
  -4.3353462E+01  -1.8171227E+01  -1.4021972E+01
  -4.3320263E+01  -2.0646236E+01  -1.6339249E+01
  -4.2601948E+01  -2.3176750E+01  -1.8578442E+01
  -4.1086830E+01  -2.5583492E+01  -2.0492731E+01
  -3.8757515E+01  -2.7636223E+01  -2.1761267E+01
  -3.5740181E+01  -2.9084698E+01  -2.2030880E+01
  -3.2324867E+01  -2.9709057E+01  -2.0987476E+01
  -2.8934200E+01  -2.9375467E+01  -1.8436617E+01
  -2.6038792E+01  -2.8074444E+01  -1.4359005E+01
  -2.4046858E+01  -2.5922546E+01  -8.9109039E+00
   9.9716187E-02   4.9789429E-02   8.1107044E-01
   2.8285980E-03   2.8921127E-02   8.0752277E-01
  -7.3070526E-02  -8.7699890E-03   7.7883720E-01
  -1.2388515E-01  -5.4793358E-02   7.3594713E-01
  -1.5123558E-01  -1.0203362E-01   6.8848014E-01
  -1.5993786E-01  -1.4568186E-01   6.4320183E-01
  -1.5569782E-01  -1.8323040E-01   6.0386616E-01
  -1.4364719E-01  -2.1390772E-01   5.7186484E-01
  -1.0412996E+01  -9.3592572E-01   3.1110048E+00
  -1.0761041E+01  -9.5812333E-01   3.1910655E+00
  -1.1118701E+01  -9.8112541E-01   3.2712436E+00
  -1.1486289E+01  -1.0050229E+00   3.3512149E+00
  -1.1864163E+01  -1.0299217E+00   3.4306145E+00
  -1.2252739E+01  -1.0559444E+00   3.5090299E+00
  -1.2652499E+01  -1.0832330E+00   3.5859964E+00
  -1.3063999E+01  -1.1119499E+00   3.6609893E+00
  -1.3487878E+01  -1.1422819E+00   3.7334142E+00
  -1.3924863E+01  -1.1744418E+00   3.8025982E+00
  -1.4375777E+01  -1.2086724E+00   3.8677795E+00
  -1.4841553E+01  -1.2452497E+00   3.9280937E+00
  -1.5323229E+01  -1.2844877E+00   3.9825618E+00
  -1.5821959E+01  -1.3267430E+00   4.0300751E+00
  -1.6339012E+01  -1.3724209E+00   4.0693808E+00
  -1.6875782E+01  -1.4219829E+00   4.0990663E+00
  -1.7433769E+01  -1.4759554E+00   4.1175442E+00
  -1.8014599E+01  -1.5349404E+00   4.1230369E+00
  -1.8620007E+01  -1.5996307E+00   4.1135631E+00
  -1.9251835E+01  -1.6708255E+00   4.0869231E+00
  -1.9912027E+01  -1.7494537E+00   4.0406847E+00
  -2.0602642E+01  -1.8366010E+00   3.9721694E+00
  -2.1325836E+01  -1.9335458E+00   3.8784313E+00
  -2.2083872E+01  -2.0418034E+00   3.7562368E+00
  -2.2879128E+01  -2.1631839E+00   3.6020303E+00
  -2.3714102E+01  -2.2998621E+00   3.4118893E+00
  -2.4591413E+01  -2.4544733E+00   3.1814671E+00
  -2.5513794E+01  -2.6302271E+00   2.9059148E+00
  -2.6484083E+01  -2.8310611E+00   2.5797863E+00
  -2.7505199E+01  -3.0618298E+00   2.1969156E+00
  -2.8580097E+01  -3.3285513E+00   1.7502713E+00
  -2.9711710E+01  -3.6387219E+00   1.2317548E+00
  -3.0902836E+01  -4.0016961E+00   6.3193715E-01
  -3.2155952E+01  -4.4291630E+00  -6.0330234E-02
  -3.3472881E+01  -4.9356914E+00  -8.5846221E-01
  -3.4854061E+01  -5.5393190E+00  -1.7789080E+00
  -3.6297356E+01  -6.2621126E+00  -2.8420959E+00
  -3.7795792E+01  -7.1305308E+00  -4.0734777E+00
  -3.9333946E+01  -8.1753082E+00  -5.5042448E+00
  -4.0882465E+01  -9.4304237E+00  -7.1710396E+00
  -4.2390411E+01  -1.0930380E+01  -9.1132965E+00
  -4.3776047E+01  -1.2704947E+01  -1.1366454E+01
  -4.4917835E+01  -1.4770240E+01  -1.3948740E+01
  -4.5649731E+01  -1.7115475E+01  -1.6839737E+01
  -4.5767395E+01  -1.9685886E+01  -1.9951096E+01
  -4.5053864E+01  -2.2365152E+01  -2.3094465E+01
  -4.3330940E+01  -2.4964539E+01  -2.5959068E+01
  -4.0532890E+01  -2.7229303E+01  -2.8118095E+01
  -3.6781940E+01  -2.8872135E+01  -2.9082825E+01
  -3.2427471E+01  -2.9633415E+01  -2.8405941E+01
  -2.8011311E+01  -2.9351900E+01  -2.5806137E+01
  -2.4151241E+01  -2.8015366E+01  -2.1258369E+01
  -2.1382841E+01  -2.5764896E+01  -1.5000122E+01
  -1.6413599E+01  -1.8726759E+01  -5.9378147E+00
  -3.3739090E-02   5.1918030E-02   9.2161465E-01
  -1.2167549E-01   3.0403137E-03   8.7132454E-01
  -1.7577362E-01  -5.2283287E-02   8.0562973E-01
  -2.0018387E-01  -1.0615540E-01   7.3771667E-01
  -2.0247364E-01  -1.5382862E-01   6.7596364E-01
  -1.9057846E-01  -1.9327545E-01   6.2437403E-01
  -1.7104530E-01  -2.2436571E-01   5.8381003E-01
  -1.0416195E+01  -8.0561364E-01   3.0946145E+00
  -1.0764452E+01  -8.2348222E-01   3.1735587E+00
  -1.1122406E+01  -8.4199995E-01   3.2525594E+00
  -1.1490375E+01  -8.6124063E-01   3.3312936E+00
  -1.1868737E+01  -8.8129044E-01   3.4093969E+00
  -1.2257925E+01  -9.0224910E-01   3.4864593E+00
  -1.2658440E+01  -9.2423177E-01   3.5620170E+00
  -1.3070859E+01  -9.4737101E-01   3.6355479E+00
  -1.3495844E+01  -9.7181880E-01   3.7064590E+00
  -1.3934149E+01  -9.9774855E-01   3.7740805E+00
  -1.4386627E+01  -1.0253587E+00   3.8376520E+00
  -1.4854241E+01  -1.0548748E+00   3.8963108E+00
  -1.5338068E+01  -1.0865537E+00   3.9490788E+00
  -1.5839298E+01  -1.1206878E+00   3.9948473E+00
  -1.6359251E+01  -1.1576102E+00   4.0323625E+00
  -1.6899366E+01  -1.1977006E+00   4.0602074E+00
  -1.7461212E+01  -1.2413938E+00   4.0767889E+00
  -1.8046478E+01  -1.2891883E+00   4.0803185E+00
  -1.8656982E+01  -1.3416588E+00   4.0687995E+00
  -1.9294668E+01  -1.3994721E+00   4.0400071E+00
  -1.9961601E+01  -1.4634051E+00   3.9914756E+00
  -2.0659981E+01  -1.5343702E+00   3.9204757E+00
  -2.1392143E+01  -1.6134459E+00   3.8239946E+00
  -2.2160578E+01  -1.7019174E+00   3.6987009E+00
  -2.2967936E+01  -1.8013282E+00   3.5409081E+00
  -2.3817066E+01  -1.9135413E+00   3.3465118E+00
  -2.4711021E+01  -2.0408287E+00   3.1109188E+00
  -2.5653091E+01  -2.1859760E+00   2.8289447E+00
  -2.6646822E+01  -2.3524222E+00   2.4946852E+00
  -2.7696045E+01  -2.5444419E+00   2.1013532E+00
  -2.8804882E+01  -2.7673795E+00   1.6410573E+00
  -2.9977760E+01  -3.0279486E+00   1.1045153E+00
  -3.1219406E+01  -3.3346176E+00   4.8063895E-01