<?xml version="1.0"?>
<VTKFile type="StructuredGrid" version="0.1" byte_order="LittleEndian" header_type="UInt32" compressor="vtkZLibDataCompressor">
  <StructuredGrid WholeExtent="0 60 0 20 0 20">
  <Piece Extent="0 60 0 20 0 20">
    <PointData Vectors="B_total">
      <DataArray type="Float32" Name="B_total" NumberOfComponents="3" format="ascii" RangeMin="0" RangeMax="59307.630909242565">
        -10.260766 -1.5037235 3.1790712 -10.603735 -1.5449193 3.2670062
        -10.9557 -1.5876244 3.3556676 -11.316865 -1.6320058 3.4447439
        -11.687469 -1.6782568 3.533882 -12.067799 -1.7266004 3.6226811
        -12.458189 -1.7772927 3.7106884 -12.859036 -1.8306266 3.7973905
        -13.270803 -1.8869352 3.8822076 -13.694024 -1.9465961 3.9644837
        -14.129312 -2.0100365 4.0434775 -14.577364 -2.0777373 4.118352
        -15.038964 -2.150239 4.188162 -15.514986 -2.2281482 4.251844
        -16.006386 -2.3121428 4.308203 -16.514208 -2.4029818 4.355903
        -17.039562 -2.5015118 4.393454 -17.583626 -2.6086807 4.419205
        -18.147615 -2.7255473 4.431343 -18.732777 -2.853298 4.4278846
        -19.34035 -2.993267 4.406685 -19.97154 -3.1469564 4.3654423
        -20.627495 -3.3160667 4.3017125 -21.309258 -3.5025296 4.2129235
        -22.017714 -3.708549 4.096395 -22.753555 -3.9366522 3.9493582
        -23.517193 -4.1897397 3.7689898 -24.30867 -4.471158 3.5524247
        -25.127533 -4.784769 3.2968097 -25.972664 -5.135028 2.9993656
        -26.842081 -5.5270767 2.657491 -27.732677 -5.9668264 2.2689304
        -28.639933 -6.4610434 1.8320034 -29.557604 -7.0174093 1.3459305
        -30.477434 -7.6445346 0.81122935 -31.388836 -8.351862 0.23017809
        -32.27866 -9.149412 -0.39270636 -33.13095 -10.047199 -1.0501748
        -33.926758 -11.054249 -1.731777 -34.643974 -12.17697 -2.423355
        -35.25727 -13.41678 -3.1063685 -35.738464 -14.766894 -3.7568703
        -36.057655 -16.208452 -4.343904 -36.18598 -17.706497 -4.8273544
        -36.10068 -19.206732 -5.155657 -35.79283 -20.634453 -5.264382
        -35.277115 -21.897097 -5.07703 -34.60155 -22.891552 -4.5092864
        -33.853752 -23.515911 -3.4767423 0.0057269335 -0.46977234 0.23616219
        0.041612864 -0.46300507 0.23705721 0.07451558 -0.4490633 0.24773216
        0.1013279 -0.42948914 0.2668376 0.12005854 -0.4064989 0.2920456
        0.13009024 -0.38249207 0.3206029 0.1320672 -0.35958004 0.34986794
        0.12749863 -0.339283 0.37772244 0.11828613 -0.32244062 0.40275162
        0.10630417 -0.30927753 0.42423597 0.09314394 -0.29958296 0.44201007
        0.07998419 -0.29288244 0.45628315 -10.304482 -1.4007119 3.1707387
        -10.648927 -1.4384729 3.256818 -11.002528 -1.4776151 3.343457
        -11.365518 -1.5182916 3.4303396 -11.738162 -1.5606802 3.5171077
        -12.120779 -1.6049861 3.6033564 -12.513741 -1.6514448 3.688627
        -12.917485 -1.7003263 3.7724013 -13.332512 -1.7519377 3.8540936
        -13.759403 -1.8066287 3.933041 -14.198826 -1.8647945 4.0084944
        -14.651529 -1.9268814 4.0796075 -15.11836 -1.9933926 4.1454234
        -15.600251 -2.0648935 4.2048645 -16.098236 -2.1420197 4.2567186
        -16.613434 -2.2254846 4.299627 -17.147043 -2.316089 4.332073
        -17.70033 -2.4147325 4.3523755 -18.274632 -2.522429 4.358676
        -18.87131 -2.640322 4.348941 -19.491743 -2.769707 4.3209586
        -20.137316 -2.9120579 4.2723436 -20.809364 -3.0690582 4.200542
        -21.509161 -3.2426426 4.1028414 -22.237875 -3.435044 3.9763808
        -22.996523 -3.648852 3.8181553 -23.7859 -3.8870835 3.6250424
        -24.606512 -4.153267 3.393792 -25.458435 -4.451538 3.1210625
        -26.341192 -4.7867565 2.8034582 -27.253529 -5.164632 2.4376044
        -28.193193 -5.591877 2.0202653 -29.156635 -6.076358 1.548521
        -30.138693 -6.627244 1.0200067 -31.13223 -7.2551203 0.43320462
        -32.127735 -7.972009 -0.21222773 -33.112816 -8.791189 -0.9151149
        -34.07161 -9.726713 -1.67238 -34.983982 -10.792367 -2.478587
        -35.82456 -11.999886 -3.3252378 -36.56171 -13.356151 -4.1995587
        -37.156826 -14.859185 -5.082408 -37.564823 -16.493073 -5.9450397
        -37.736893 -18.222193 -6.7447357 -37.626995 -19.986052 -7.420089
        -37.20282 -21.696486 -7.88758 -36.460632 -23.239672 -8.041907
        -35.440994 -24.4849 -7.762393 -34.240036 -25.300678 -6.9262457
        -33.010254 -25.575531 -5.426504 -8.247624 -6.8817453 -0.7046275
        0.093310356 -0.43486214 0.18120003 0.12473106 -0.4118471 0.20820951
        0.14537096 -0.38581467 0.24306631 0.15477085 -0.35969448 0.2817397
        0.15417767 -0.33586884 0.32047153 0.14590454 -0.3158846 0.3564614
        0.1325922 -0.30035973 0.38802147 0.11668968 -0.2892213 0.4144393
        0.1001296 -0.28193712 0.43575197 0.0842309 -0.27775097 0.45245314
        -10.336289 -1.2915621 3.1600676 -10.681841 -1.3256711 3.2444315
        -11.036694 -1.361026 3.3292124 -11.401098 -1.3977655 3.414091
        -11.775352 -1.4360507 3.4987066 -12.159803 -1.4760675 3.5826504
        -12.554857 -1.5180304 3.6654618 -12.960983 -1.5621846 3.7466197
        -13.378725 -1.6088098 3.8255343 -13.808709 -1.6582246 3.9015396
        -14.251646 -1.7107902 3.9738817 -14.708338 -1.7669151 4.0417075
        -15.179688 -1.827061 4.1040535 -15.666692 -1.8917482 4.159831
        -16.17045 -1.9615635 4.2078166 -16.692156 -2.0371675 4.2466335
        -17.233093 -2.1193066 4.2747455 -17.79463 -2.208822 4.290442
        -18.378204 -2.3066683 4.2918315 -18.985304 -2.4139295 4.276833
        -19.617464 -2.5318415 4.243175 -20.276234 -2.6618233 4.1883936
        -20.963161 -2.8055093 4.1098313 -21.67977 -2.964796 4.00464
        -22.427525 -3.1418943 3.869775 -23.207804 -3.3393955 3.7020082
        -24.02184 -3.5603566 3.4979017 -24.870655 -3.808395 3.2538118
        -25.754967 -4.0878105 2.9658854 -26.675047 -4.4037323 2.6300695
        -27.630562 -4.762287 2.2421389 -28.620346 -5.170808 1.7977588
        -29.642138 -5.6380596 1.2925788 -30.692272 -6.174493 0.72235644
        -31.76527 -6.7924633 0.0830971 -32.853325 -7.506402 -0.6288059
        -33.94559 -8.332792 -1.4164288 -35.027138 -9.289823 -2.2821362
        -36.077488 -10.396441 -3.2272115 -37.068665 -11.670544 -4.251032
        -37.96287 -13.125875 -5.3492947 -38.71035 -14.767335 -6.510751
        -39.248524 -16.584549 -7.711915 -39.50428 -18.544107 -8.909706
        -39.401558 -20.581694 -10.033043 -38.876026 -22.596563 -10.975893
        -37.896675 -24.451847 -11.595758 -36.490494 -25.984371 -11.721926
        -34.76228 -27.025475 -11.175939 -32.899124 -27.430424 -9.801677
        -31.152103 -27.108364 -7.496447 -8.950363 -8.170955 -1.2070255
        0.15100574 -0.37301254 0.14515209 0.17250252 -0.34547424 0.19213772
        0.17989159 -0.3194313 0.24299431 0.17533875 -0.29731178 0.29268932
        0.16218662 -0.2803669 0.33769703 0.14399719 -0.2687807 0.37607217
        0.12378693 -0.2619872 0.40732652 0.10377312 -0.25904036 0.43186688
        0.08532524 -0.25890446 0.4505925 -10.358073 -1.1766304 3.1467493
        -10.704425 -1.2068949 3.2295277 -11.060202 -1.2382642 3.3126035
        -11.425681 -1.2708619 3.3956552 -11.801181 -1.3048313 3.478321
        -12.187078 -1.340339 3.5601912 -12.583807 -1.3775761 3.640804
        -12.991871 -1.4167619 3.719637 -13.41185 -1.4581472 3.7961001
        -13.844407 -1.5020173 3.869525 -14.290298 -1.5486966 3.9391558
        -14.750375 -1.5985531 4.0041366 -15.225589 -1.6520023 4.063499
        -15.716998 -1.7095152 4.116149 -16.225765 -1.7716235 4.1608524
        -16.753157 -1.8389288 4.196223 -17.300537 -1.9121124 4.2207065
        -17.869364 -1.991947 4.232571 -18.461185 -2.079313 4.229894
        -19.077618 -2.1752162 4.210556 -19.720339 -2.280812 4.1722307
        -20.391073 -2.397435 4.1123824 -21.091587 -2.5266347 4.0282564
        -21.823656 -2.6702235 3.9168754 -22.58906 -2.8303332 3.775022
        -23.389559 -3.0094876 3.5992384 -24.226852 -3.2106905 3.3857827
        -25.102533 -3.4375389 3.1306138 -26.018019 -3.694357 2.8293552
        -26.974445 -3.98637 2.4772696 -27.972536 -4.31991 2.0692298
        -29.012423 -4.702674 1.5997102 -30.093428 -5.144018 1.0627728
        -31.213764 -5.655305 0.45204446 -32.37014 -6.2502594 -0.2393371
        -33.557144 -6.945281 -1.0188348 -34.76634 -7.7596426 -1.8946711
        -35.98477 -8.715336 -2.8759403 -37.192818 -9.836378 -3.9724848
        -38.361084 -11.147112 -5.1940784 -39.44649 -12.66906 -6.548217
        -40.388145 -14.415715 -8.0356455 -41.10443 -16.384945 -9.642641
        -41.493816 -18.549038 -11.329793 -41.44281 -20.843615 -13.018279
        -40.844505 -23.158287 -14.577085 -39.628574 -25.333967 -15.817267
        -37.79869 -27.172417 -16.501005 -35.46573 -28.46198 -16.371004
        -32.860065 -29.017149 -15.198139 -30.308712 -28.721455 -12.834118
        -28.176426 -27.557005 -9.247551 -0.5466423 -0.98527336 -0.038352966
        0.1987524 -0.2790699 0.14668846 0.20218086 -0.2569971 0.21098804
        0.19207668 -0.24077797 0.27204084 0.17305565 -0.23093891 0.3256955
        0.14958858 -0.22689915 0.3701172 0.12519264 -0.22742605 0.40520465
        0.10219955 -0.23114443 0.43193853 0.08186054 -0.23677874 0.45175806
        -10.371841 -1.05633 3.1312823 -10.718748 -1.0825776 3.2126126
        -11.075191 -1.1097839 3.294142 -11.441465 -1.1380564 3.3755486
        -11.817912 -1.1675209 3.4564707 -12.20493 -1.198322 3.536498
        -12.602982 -1.2306274 3.61517 -13.0126 -1.2646289 3.6919641
        -13.434395 -1.300546 3.766291 -13.869068 -1.3386294 3.8374827
        -14.317412 -1.3791635 3.9047828 -14.780324 -1.4224722 3.9673347
        -15.258802 -1.4689223 4.024168 -15.753957 -1.5189294 4.0741854
        -16.267012 -1.5729645 4.116147 -16.799295 -1.6315626 4.1486583
        -17.352257 -1.6953309 4.170152 -17.927435 -1.7649615 4.1788783
        -18.526482 -1.8412464 4.172891 -19.15113 -1.9250948 4.1500354
        -19.803207 -2.0175571 4.1079373 -20.484608 -2.1198535 4.0439963
        -21.197306 -2.233411 3.9553685 -21.943333 -2.3599098 3.8389556
        -22.724783 -2.5013404 3.6913767 -23.5438 -2.6600795 3.5089571
        -24.402565 -2.8389792 3.2876606 -25.303265 -3.041487 3.0230572
        -26.248055 -3.271789 2.7102523 -27.239 -3.5349996 2.343818
        -28.277979 -3.8373933 1.9177078 -29.366575 -4.186694 1.4251528
        -30.505905 -4.592432 0.85853016 -31.696384 -5.0663633 0.20916516
        -32.937363 -5.622942 -0.5329659 -34.226463 -6.2797937 -1.3796576
        -35.558514 -7.058113 -2.3450208 -36.923687 -7.982801 -3.4460442
        -38.30465 -9.082086 -4.7028832 -39.67219 -10.386127 -6.1382794
        -40.979557 -11.924083 -7.775162 -42.15579 -13.718775 -9.631063
        -43.099827 -15.778254 -11.707819 -43.678627 -18.083916 -13.97562
        -43.73433 -20.57608 -16.352102 -43.105957 -23.14014 -18.680727
        -41.669357 -25.599424 -20.717316 -39.391438 -27.723003 -22.137634
        -36.383213 -29.255259 -22.577042 -32.92565 -29.96637 -21.70256
        -29.443363 -29.71014 -19.297596 -26.42133 -28.466003 -15.324068
        -24.290821 -26.344496 -9.929173 0.21957588 -0.1820221 0.11897469
        0.21660233 -0.1697197 0.1958189 0.19948387 -0.16522598 0.26636982
        0.1741314 -0.1677227 0.32628775 0.14577484 -0.17552948 0.37420177
        0.1181345 -0.18670511 0.4107759 0.0933733 -0.19948006 0.43770927
        0.07241249 -0.21252728 0.45703056 -10.379578 -0.93118703 3.1147592
        -10.726854 -0.9532647 3.1947985 -11.083761 -0.9761501 3.2749584
        -11.450609 -0.9999345 3.354918 -11.82776 -1.0247242 3.434315
        -12.215632 -1.0506425 3.5127413 -12.61471 -1.0778311 3.5897367
        -13.025552 -1.1064534 3.6647809 -13.448799 -1.1366959 3.7372851
        -13.885182 -1.1687719 3.8065836 -14.335528 -1.202924 3.8719208
        -14.800771 -1.2394288 3.9324403 -15.281953 -1.2785994 3.9871721
        -15.780231 -1.3207921 4.0350165 -16.29688 -1.3664117 4.0747313
        -16.833296 -1.4159182 4.104914 -17.390985 -1.4698362 4.1239905
        -17.971575 -1.5287654 4.130196 -18.576809 -1.5933945 4.1215634
        -19.208532 -1.6645176 4.095908 -19.868702 -1.7430564 4.0508165
        -20.559376 -1.8300872 3.9836287 -21.282726 -1.9268752 3.8914223
        -22.041027 -2.0349188 3.7709887 -22.836672 -2.1560044 3.6187978
        -23.672176 -2.2922783 3.4309733 -24.55019 -2.4463358 3.203206
        -25.473486 -2.621337 2.9306993 -26.444965 -2.821153 2.6080651
        -27.467617 -3.050554 2.2292101 -28.544521 -3.315454 1.7871838
        -29.67877 -3.6232126 1.2739855 -30.87339 -3.9830203 0.6802917
        -32.1312 -4.406366 -0.004933715 -33.454483 -4.907586 -0.795004
        -34.844376 -5.504464 -1.7063043 -36.299683 -6.21881 -2.7593017
        -37.814735 -7.0768633 -3.9796796 -39.37589 -8.1092825 -5.399255
        -40.955986 -9.350201 -7.055904 -42.506725 -10.834741 -8.991291
        -43.94909 -12.593983 -11.244504 -45.163704 -14.646357 -13.839235
        -45.9849 -16.984524 -16.762486 -46.205322 -19.558304 -19.934755
        -45.599693 -22.25641 -23.176275 -43.97518 -24.894209 -26.181412
        -41.24619 -27.217947 -28.52086 -37.514507 -28.936262 -29.692238
        -33.116043 -29.779884 -29.223425 -28.593506 -29.574379 -26.802624
        -24.582434 -28.295223 -22.37844 -21.648043 -26.07645 -16.175503
        -17.530247 -20.200926 -7.4906216 0.21654892 -0.059793472 0.21066284
        0.19153214 -0.073721886 0.28529644 0.16044807 -0.0941391 0.34606075
        0.12877178 -0.11803722 0.39262724 0.09991932 -0.14280081 0.4266889
        0.0755043 -0.16656065 0.4507439 0.05586815 -0.188169 0.46728718
        -10.383116 -0.8018529 3.098598 -10.730626 -0.81962794 3.1775305
        -11.087844 -0.8380553 3.256523 -11.455094 -0.8572092 3.335255
        -11.832754 -0.87717617 3.4133654 -12.22126 -0.8980561 3.4904482
        -12.621114 -0.9199648 3.566044 -13.032899 -0.9430348 3.6396348
        -13.457276 -0.9674186 3.7106345 -13.895003 -0.9932898 3.7783778
        -14.346938 -1.0208467 3.8421116 -14.814046 -1.050315 3.9009812
        -15.297403 -1.0819514 3.9540164 -15.798209 -1.1160481 4.0001173
        -16.317785 -1.1529369 4.03804 -16.857574 -1.1929972 4.0663786
        -17.419146 -1.2366617 4.083551 -18.0042 -1.2844265 4.087782
        -18.614557 -1.336863 4.077087 -19.252161 -1.394633 4.049258
        -19.919088 -1.458507 4.001847 -20.617542 -1.529388 3.9321427
        -21.349869 -1.6083428 3.837155 -22.118557 -1.6966397 3.7135808
        -22.92628 -1.7957993 3.5577583 -23.775888 -1.9076575 3.3656328
        -24.670467 -2.0344472 3.1326528 -25.613329 -2.1789029 2.853691
        -26.608065 -2.344398 2.5229142 -27.658564 -2.53512 2.1336172
        -28.769037 -2.7563007 1.6780157 -29.94405 -3.0145097 1.1469525
        -31.188522 -3.3180304 0.5294902 -32.507668 -3.67733 -0.18767639
        -33.90679 -4.105629 -1.0210681 -35.39073 -4.6195517 -1.9916036
        -36.962635 -5.2398157 -3.1261363 -38.621693 -5.9918447 -4.4592648
        -40.359013 -6.906042 -6.0349975 -42.15113 -8.01736 -7.9074903
        -43.950413 -9.363422 -10.139258 -45.672493 -10.980227 -12.794456
        -47.182293 -12.894114 -15.923876 -48.282948 -15.108685 -19.538279
        -48.71617 -17.586586 -23.56854 -48.1863 -20.2284 -27.816961
        -46.42027 -22.855833 -31.914934 -43.26564 -25.211704 -35.31541
        -38.80372 -26.989958 -37.352757 -33.425037 -27.900156 -37.38364
        -27.804707 -27.750513 -34.974995 -22.752747 -26.513065 -30.055063
        -18.990435 -24.33522 -22.941435 -16.95738 -21.489277 -14.223386
        0.19502068 0.062589645 0.26916122 0.16240692 0.024442673 0.33799458
        0.12766075 -0.018157005 0.39074612 0.09563637 -0.06089592 0.42871952
        0.06875801 -0.10080004 0.45474005 0.047621727 -0.13621235 0.47190428
        0.031787872 -0.16651845 0.48288387 -10.384041 -0.66908395 3.0842867
        -10.731688 -0.68244624 3.1623235 -11.089105 -0.69630146 3.240376
        -11.456625 -0.71070606 3.3181236 -11.83464 -0.72572577 3.3952072
        -12.223597 -0.74143684 3.471222 -12.624015 -0.75792736 3.54571
        -13.036494 -0.77529836 3.6181552 -13.461715 -0.793666 3.6879733
        -13.900454 -0.8131629 3.7545013 -14.353594 -0.83394045 3.816988
        -14.822124 -0.85617113 3.8745794 -15.307151 -0.88005155 3.9263072
        -15.809906 -0.90580523 3.9710712 -16.331745 -0.93368727 4.0076265
        -16.874157 -0.9639889 4.0345645 -17.43876 -0.9970434 4.050298
        -18.027308 -1.0332338 4.0530434 -18.641691 -1.073002 4.040803
        -19.283932 -1.1168611 4.0113497 -19.956205 -1.1654104 3.9622064
        -20.660835 -1.2193544 3.8906233 -21.400309 -1.2795272 3.7935534
        -22.17731 -1.3469248 3.6676102 -22.99473 -1.4227455 3.5090384
        -23.855717 -1.5084412 3.3136215 -24.76371 -1.6057844 3.0766094
        -25.722504 -1.7169573 2.7925994 -26.736279 -1.8446631 2.455379
        -27.809706 -1.9922775 2.0577257 -28.948 -2.1640403 1.5911357
        -30.157036 -2.3653123 1.0454471 -31.443428 -2.6029015 0.4083118
        -32.814594 -2.8854785 -0.33558372 -34.27863 -3.2240953 -1.2056305
        -35.843887 -3.6327968 -2.2268546 -37.51777 -4.129298 -3.4319701
        -39.304356 -4.735658 -4.8638754 -41.199944 -5.4787374 -6.5781574
        -43.185703 -6.3901453 -8.644769 -45.216396 -7.5050163 -11.147001
        -47.20502 -8.858746 -14.174874 -49.00445 -10.480282 -17.808525
        -50.39081 -12.38065 -22.086662 -51.05845 -14.535904 -26.956736
        -50.64234 -16.866127 -32.210144 -48.786133 -19.21689 -37.420467
        -45.262844 -21.355387 -41.921906 -40.12397 -22.995844 -44.87585
        -33.80874 -23.860636 -45.45116 -27.126165 -23.76307 -43.077972
        -21.068388 -22.67482 -37.65884 -16.519974 -20.73877 -29.612387
        -14.007559 -18.217728 -19.714058 -7.7387676 -8.758173 -4.896921
        0.10869789 0.11312485 0.42940903 0.07385063 0.047724724 0.46266174
        0.045627594 -0.013431072 0.483222 0.024665833 -0.06741333 0.49486494
        0.010169983 -0.11316347 0.50079155 0.0008125305 -0.1508491 0.5033444
        -10.383628 -0.5337077 3.0731685 -10.731348 -0.5425724 3.1505473
        -11.088881 -0.5517672 3.2279103 -11.45657 -0.56133014 3.304939
        -11.834811 -0.5713058 3.3812745 -12.224066 -0.58174574 3.456513
        -12.624865 -0.5927094 3.5301986 -13.037815 -0.6042654 3.6018164
        -13.463615 -0.6164924 3.670784 -13.903057 -0.62948006 3.73644
        -14.357038 -0.6433312 3.798034 -14.826566 -0.65816295 3.8547142
        -15.312769 -0.6741085 3.905512 -15.816903 -0.6913203 3.9493291
        -16.340351 -0.70997167 3.984919 -16.88463 -0.73026097 4.010872
        -17.451399 -0.75241584 4.0255957 -18.04245 -0.77669775 4.0273023
        -18.659721 -0.8034094 4.013984 -19.305302 -0.8329024 3.9833994
        -19.981438 -0.86558795 3.9330497 -20.690538 -0.90195096 3.8601568
        -21.435205 -0.9425665 3.7616315 -22.218256 -0.9881217 3.634029
        -23.042759 -1.0394464 3.4735122 -23.912083 -1.097547 3.2757547
        -24.829945 -1.163656 3.0358531 -25.800491 -1.2392932 2.7481954
        -26.828375 -1.3263482 2.406282 -27.918863 -1.4271857 2.0024924
        -29.077957 -1.5447879 1.5277712 -30.312561 -1.6829386 0.97118115
        -31.630644 -1.8464634 0.31926835 -33.041374 -2.0415387 -0.4448554
        -34.55513 -2.276081 -1.3428538 -36.183136 -2.5602143 -2.4030292
        -37.936375 -2.906812 -3.6628258 -39.82315 -3.332051 -5.171919
        -41.844433 -3.855868 -6.9954777 -43.985893 -4.502076 -9.216734
        -46.20537 -5.2977014 -11.936817 -48.415203 -6.2708406 -15.268501
        -50.460186 -7.4459496 -19.318604 -52.095947 -8.835385 -24.152714
        -52.978394 -10.426238 -29.73675 -52.6836 -12.163438 -35.85771
        -50.781353 -13.933756 -42.043056 -46.975178 -15.560616 -47.52405
        -41.284157 -16.822311 -51.305603 -34.185234 -17.499502 -52.38215
        -26.60421 -17.44228 -50.053917 -19.696278 -16.627243 -44.197426
        -14.492483 -15.168749 -35.324917 -11.59549 -13.276142 -24.38477
        -11.073925 -11.18308 -12.420702 0.0320549 0.17175531 0.5558243
        0.0014457703 0.0885787 0.5579958 -0.018548965 0.01392889 0.5527897
        -0.029724121 -0.04974723 0.544363 -0.03451538 -0.10215855 0.5353737
        -0.035111427 -0.14426911 0.5271789 -10.382805 -0.39659 3.0662944
        -10.730556 -0.40089965 3.1432717 -11.088143 -0.40537402 3.2202148
        -11.455917 -0.41003257 3.296806 -11.834281 -0.41489804 3.372687
        -12.2237 -0.4199967 3.4474552 -12.624711 -0.42535904 3.5206552
        -13.03793 -0.43102008 3.591773 -13.464062 -0.43701997 3.6602268
        -13.90391 -0.44340485 3.725357 -14.358378 -0.45022723 3.786414
        -14.82849 -0.45754713 3.8425465 -15.315385 -0.46543306 3.8927867
        -15.820332 -0.47396296 3.9360363 -16.34473 -0.48322618 3.9710484
        -16.890118 -0.49332458 3.996412 -17.458174 -0.5043752 4.0105333
        -18.050716 -0.5165129 4.0116196 -18.669716 -0.5298933 3.9976583
        -19.317295 -0.54469776 3.9663982 -19.995745 -0.5611382 3.915328
        -20.707533 -0.57946455 3.8416512 -21.455326 -0.59997326 3.7422523
        -22.242027 -0.6230177 3.6136503 -23.070812 -0.6490261 3.451959
        -23.945187 -0.678516 3.2527807 -24.869038 -0.71212065 3.0111191
        -25.846739 -0.75062096 2.7212307 -26.883232 -0.79498595 2.376437
        -27.984158 -0.8464276 1.9688691 -29.15602 -0.906472 1.4891238
        -30.406364 -0.977054 0.9257759 -31.744022 -1.0606384 0.2646747
        -33.17929 -1.1603796 -0.51206905 -34.72401 -1.2803175 -1.427563
        -36.39128 -1.4256203 -2.512214 -38.194435 -1.6028664 -3.8065124
        -40.144596 -1.8203337 -5.364519 -42.245922 -2.088254 -7.257679
        -44.48728 -2.4189053 -9.57799 -46.828953 -2.8263197 -12.438505
        -49.183483 -3.3252568 -15.967438 -51.39117 -3.9288669 -20.290062
        -53.195 -4.644355 -25.491135 -54.226246 -5.466122 -31.550795
        -54.02191 -6.36666 -38.25527 -52.101334 -7.2876296 -45.102722
        -48.119072 -8.136655 -51.254955 -42.06967 -8.797195 -55.60858
        -34.453434 -9.152664 -57.034946 -26.275438 -9.121629 -54.741383
        -18.803192 -8.691566 -48.585373 -13.168581 -7.9247017 -39.14558
        -10.025602 -6.933652 -27.492676 -9.435785 -5.8427343 -14.798249
        -0.059196472 0.18147993 0.7022877 -0.08182335 0.09148812 0.66564655
        -0.0902729 0.012649059 0.62949467 -0.08906174 -0.053269386 0.5977907
        -0.082250595 -0.10663235 0.5719652 -0.072826385 -0.14890808 0.5519588
        -10.382134 -0.25861266 3.0643275 -10.729884 -0.25833875 3.141172
        -11.087479 -0.2580629 3.217976 -11.455268 -0.2577857 3.2944221
        -11.833659 -0.2575079 3.3701527 -12.223119 -0.2572303 3.4447641
        -12.624186 -0.25695384 3.5178022 -13.037478 -0.2566797 3.588753
        -13.463706 -0.25640923 3.657035 -13.903671 -0.256144 3.721989
        -14.358284 -0.2558858 3.7828648 -14.82857 -0.25563678 3.8388124
        -15.315676 -0.25539938 3.8888636 -15.820871 -0.25517645 3.9319198
        -16.345562 -0.2549712 3.9667342 -16.891293 -0.25478742 3.9918947
        -17.45975 -0.25462928 4.0058074 -18.05276 -0.2545017 4.006677
        -18.6723 -0.25441018 3.9924898 -19.320509 -0.25436068 3.9609902
        -19.99969 -0.25435996 3.909663 -20.712328 -0.25441527 3.835705
        -21.461111 -0.2545344 3.7359915 -22.248974 -0.25472423 3.607028
        -23.079123 -0.25499415 3.4449127 -23.955105 -0.25534996 3.2452233
        -24.880867 -0.25579634 3.0029314 -25.86085 -0.25633422 2.7122495
        -26.900091 -0.25695747 2.3664389 -28.004353 -0.25765043 1.9575489
        -29.180288 -0.25838092 1.4760617 -30.435663 -0.25909203 0.9103894
        -31.779575 -0.25969002 0.24615693 -33.222675 -0.2600264 -0.5348536
        -34.777275 -0.25987402 -1.4562212 -36.45707 -0.25889257 -2.5490265
        -38.276127 -0.25658375 -3.854745 -40.246456 -0.25223604 -5.4288483
        -42.37322 -0.24485832 -7.3447886 -44.646275 -0.23312159 -9.697376
        -47.02665 -0.21532576 -12.603453 -49.426876 -0.18943469 -16.19613
        -51.68582 -0.15329619 -20.606564 -53.5424 -0.10502109 -25.92552
        -54.620064 -0.043716043 -32.137585 -54.443405 0.029583216 -39.028553
        -52.515827 0.11089063 -46.08705 -48.476276 0.19242361 -52.452614
        -42.31142 0.2618692 -56.98702 -34.529926 0.30657175 -58.522083
        -26.162502 0.31992048 -56.23561 -18.512201 0.29982388 -49.97963
        -12.742722 0.25074238 -40.354897 -9.524031 0.18292198 -28.471779
        -8.914963 0.10866547 -15.542979 -0.15106583 0.13319683 0.84461594
        -0.1640377 0.050809115 0.76883507 -0.16001129 -0.020573288 0.70212173
        -0.14606094 -0.07980795 0.64780664 -0.12767792 -0.127522 0.6058912
        -0.10844231 -0.16520198 0.57472193 -10.381806 -0.12066147 3.0674932
        -10.729527 -0.11580515 3.144478 -11.087083 -0.11078036 3.2214282
        -11.454823 -0.1055688 3.2980256 -11.833151 -0.10014914 3.3739119
        -12.222532 -0.094496734 3.448684 -12.623503 -0.08858311 3.5218866
        -13.03668 -0.08237553 3.593006 -13.462767 -0.075836465 3.6614594
        -13.902564 -0.06892307 3.726587 -14.356981 -0.061586343 3.7876391
        -14.827035 -0.053770598 3.8437643 -15.313868 -0.045412257 3.8939943
        -15.818748 -0.036438935 3.9372296 -16.343075 -0.026767967 3.972224
        -16.888384 -0.016304875 3.9975648 -17.45635 -0.0049411356 4.0116587
        -18.048796 0.007448204 4.012711 -18.667688 0.021008046 3.998709
        -19.315147 0.03590737 3.9674 -19.993464 0.05234474 3.9162734
        -20.705097 0.07055523 3.8425298 -21.452717 0.09081977 3.7430532
        -22.239218 0.1134775 3.6143618 -23.06777 0.13893798 3.4525678
        -23.941868 0.16770604 3.253274 -24.865393 0.20040508 3.0114846
        -25.842701 0.23781337 2.7214565 -26.878712 0.28090927 2.3765135
        -27.979042 0.33093446 1.9687957 -29.150158 0.38947535 1.4889096
        -30.39956 0.45857418 0.92545134 -31.735998 0.5408739 0.26430416
        -33.169685 0.6398111 -0.51236665 -34.71232 0.75985813 -1.4275812
        -36.37682 0.90682995 -2.5115993 -38.17627 1.0882471 -3.8046863
        -40.121456 1.3137329 -5.360544 -42.216106 1.5953777 -7.2500668
        -44.44857 1.9479358 -9.5644 -46.77854 2.3885872 -12.415337
        -49.118073 2.9358068 -15.929291 -51.307335 3.6066058 -20.229162
        -53.08997 4.411463 -25.396801 -54.09941 5.346122 -31.409561
        -53.876812 6.3807993 -38.05207 -51.947727 7.4495373 -44.82413
        -47.973396 8.445512 -50.894417 -41.95295 9.230496 -55.17229
        -34.387146 9.666243 -56.544754 -26.273106 9.659064 -54.23255
        -18.864315 9.193203 -48.097878 -13.279448 8.338873 -38.7131
        -10.165485 7.2266893 -27.134718 -9.584265 6.0026493 -14.518889
        -0.2279644 0.032951355 0.9567013 -0.23235512 -0.02852273 0.8499422
        -0.21779251 -0.08188486 0.75918484 -0.19330215 -0.12645435 0.68712234
        -0.16541672 -0.16268277 0.6325667 -0.13814735 -0.19159138 0.59262097
        -10.381633 0.016377803 3.0755658 -10.729295 0.02578562 3.15296
        -11.086764 0.035527058 3.2303374 -11.454386 0.045639083 3.3073783
        -11.832557 0.056164727 3.3837245 -12.221737 0.06715387 3.4589713
        -12.622456 0.078664124 3.5326629 -13.035321 0.09076162 3.6042836
        -13.46103 0.10352229 3.6732502 -13.900373 0.11703275 3.7389014
        -14.354248 0.13139209 3.800486 -14.823663 0.14671308 3.857152
        -15.309744 0.16312417 3.9079297 -15.813745 0.1807718 3.9517193
        -16.337048 0.19982278 3.987274 -16.88117 0.22046818 4.0131817
        -17.447763 0.24292672 4.027851 -18.038624 0.26745018 4.029491
        -18.655684 0.29433012 4.0160923 -19.301027 0.32390574 3.985412
        -19.976894 0.35657477 3.9349494 -20.685694 0.3928067 3.861925
        -21.430017 0.43316057 3.763246 -22.212671 0.47830856 3.635466
        -23.036715 0.5290609 3.4747477 -23.905495 0.5864099 3.2767615
        -24.822714 0.6515755 3.0366068 -25.792486 0.72607243 2.7486715
        -26.819427 0.8117935 2.4064636 -27.908752 0.91112626 2.002376
        -29.066397 1.0271016 1.5273738 -30.29916 1.1635928 0.970558
        -31.614883 1.3255774 0.31854182 -33.022552 1.5194724 -0.4454608
        -34.5323 1.7535646 -1.3429457 -36.155 2.0385282 -2.4019442
        -37.90117 2.3880312 -3.65948 -39.77851 2.8193727 -5.1645575
        -41.787216 3.3540146 -6.9813347 -43.912014 4.0177593 -9.19149
        -46.109753 4.840084 -11.893879 -48.291977 5.8518677 -15.198071
        -50.303375 7.080271 -19.2067 -51.90091 8.539625 -23.980362
        -52.744553 10.217277 -29.48029 -52.41796 12.05552 -35.49117
        -50.501804 13.934557 -41.543697 -46.711502 15.666798 -46.881294
        -41.074436 17.016016 -50.530884 -34.066597 17.749226 -51.513866
        -26.599669 17.708525 -49.152996 -19.805069 16.869051 -43.33286
        -14.691063 15.350653 -34.555023 -11.847782 13.374414 -23.743965
        -11.343857 11.188274 -11.917137 -0.277956 -0.09918976 1.0197258
        -0.27700233 -0.13195992 0.8963127 -0.25609207 -0.16104841 0.7924433
        -0.2251873 -0.18613625 0.71048784 -0.19140244 -0.20728302 0.6487057
        -0.15900707 -0.22478986 0.6036097 -10.381056 0.15162389 3.0878825
        -10.728616 0.16552344 3.1659431 -11.085938 0.17991908 3.244017
        -11.45336 0.19486614 3.3217833 -11.831268 0.21042883 3.398883
        -12.220113 0.22668172 3.4749107 -12.620414 0.2437108 3.549408
        -13.032764 0.26161495 3.621858 -13.457849 0.2805074 3.6916754
        -13.896443 0.30051756 3.758197 -14.349426 0.32179314 3.8206706
        -14.817788 0.34450233 3.8782415 -15.302633 0.36883658 3.9299393
        -15.805191 0.3950138 3.9746635 -16.326817 0.42328233 4.011167
        -16.868994 0.4539257 4.0380397 -17.43334 0.4872685 4.053693
        -18.021605 0.5236837 4.05634 -18.635672 0.56360215 4.0439816
        -19.277563 0.6075242 4.014388 -19.949444 0.6560347 3.9650788
        -20.65363 0.70982265 3.8933017 -21.392597 0.76970565 3.7960062
        -22.169016 0.8366632 3.6698034 -22.98576 0.91187257 3.5109346
        -23.845957 0.9967689 3.315182 -24.753014 1.0931097 3.0777972
        -25.71068 1.2030649 2.7933786 -26.723091 1.3293355 2.4557238
        -27.794838 1.4753067 2.0576265 -28.931046 1.6452508 1.5906155