<?xml version="1.0"?>
<VTKFile type="StructuredGrid" version="0.1" byte_order="LittleEndian" header_type="UInt32" compressor="vtkZLibDataCompressor">
  <StructuredGrid WholeExtent="0 60 0 20 0 20">
  <Piece Extent="0 60 0 20 0 20">
    <PointData Vectors="B_total">
      <DataArray type="Float32" Name="B_total" NumberOfComponents="3" format="ascii" RangeMin="0" RangeMax="56321.583687299986">
        -9.094996 -1.0988722 3.2776084 -9.411224 -1.1295246 3.3617325
        -9.736994 -1.1618745 3.4464433 -10.07261 -1.1961278 3.531518
        -10.418427 -1.2325189 3.6167078 -10.774847 -1.2713141 3.701735
        -11.142324 -1.312816 3.7862887 -11.521381 -1.357367 3.8700185
        -11.912612 -1.4053544 3.9525287 -12.316688 -1.4572153 4.03337
        -12.734369 -1.5134429 4.112031 -13.166506 -1.5745915 4.1879263
        -13.614047 -1.6412852 4.2603846 -14.078039 -1.7142237 4.3286366
        -14.559631 -1.7941917 4.3917985 -15.060067 -1.8820674 4.4488583
        -15.580679 -1.9788328 4.498661 -16.122879 -2.085585 4.539893
        -16.68814 -2.2035484 4.571072 -17.277983 -2.3340888 4.590536
        -17.893948 -2.478731 4.59644 -18.537565 -2.6391768 4.58675
        -19.210337 -2.81733 4.559251 -19.9137 -3.0153234 4.5115476
        -20.648993 -3.235554 4.441076 -21.417425 -3.4807248 4.3451037
        -22.220015 -3.753893 4.220749 -23.057545 -4.058526 4.064961
        -23.93047 -4.39857 3.8745437 -24.838772 -4.7785172 3.6461601
        -25.78182 -5.2034836 3.3763824 -26.758131 -5.6792855 3.0617745
        -27.765142 -6.2125163 2.699057 -28.798939 -6.8106112 2.2853336
        -29.854 -7.4818997 1.818397 -30.922987 -8.235607 1.2970799
        -31.996544 -9.081769 0.7216004 -33.06308 -10.030976 0.09385109
        -34.10852 -11.093829 -0.5823896 -35.115875 -12.27994 -1.3012996
        -36.064632 -13.596264 -2.0547621 -36.93013 -15.044626 -2.8317645
        -37.683285 -16.618372 -3.6171293 -38.29148 -18.29841 -4.3894215
        -38.721558 -20.049263 -5.118204 -38.945812 -21.816391 -5.7614565
        -38.95096 -23.526215 -6.2644787 -38.748802 -25.090424 -6.561781
        -38.385803 -26.415176 -6.5828733 -37.94793 -27.414421 -6.2616034
        -32.183323 -24.040598 -4.682287 -0.07675439 -0.26219082 0.47930717
        -0.07652688 -0.28862667 0.47386694 -0.070500374 -0.31339264 0.46924925
        -0.059972286 -0.3344078 0.46628046 -0.04674673 -0.35042858 0.4653492
        -0.032666683 -0.36110783 0.4664271 -0.019248486 -0.36682796 0.46914458
        -0.0075159073 -0.36841583 0.4729817 0.0020189285 -0.3668933 0.47739232
        0.009243965 -0.363245 0.4819162 -9.144956 -1.0271069 3.28495
        -9.463662 -1.0554961 3.368065 -9.792139 -1.0854863 3.4516485
        -10.130725 -1.1172695 3.5354722 -10.479802 -1.1510639 3.6192825
        -10.83981 -1.1871179 3.702798 -11.211247 -1.2257131 3.785701
        -11.59468 -1.2671692 3.8676362 -11.990755 -1.3118474 3.9482005
        -12.400202 -1.3601562 4.0269356 -12.823845 -1.4125568 4.1033196
        -13.26261 -1.4695688 4.176752 -13.717527 -1.5317782 4.246545
        -14.189735 -1.5998439 4.311905 -14.680485 -1.6745062 4.37192
        -15.191131 -1.7565969 4.4255404 -15.723136 -1.8470491 4.471565
        -16.278051 -1.9469097 4.5086236 -16.857508 -2.057352 4.5351644
        -17.463205 -2.179692 4.549439 -18.096874 -2.3154075 4.5495005
        -18.760275 -2.4661589 4.5331917 -19.455154 -2.6338165 4.4981484
        -20.183237 -2.820494 4.441799 -20.94619 -3.028588 4.3613644
        -21.745602 -3.2608268 4.2538505 -22.582928 -3.5203342 4.1160603
        -23.459452 -3.810695 3.9445536 -24.37621 -4.136041 3.7356513
        -25.333849 -4.5011487 3.485423 -26.332483 -4.911546 3.1897058
        -27.371468 -5.3736367 2.844164 -28.44915 -5.8948336 2.4444103
        -29.562601 -6.4837017 1.9861994 -30.707335 -7.1501055 1.46567
        -31.877016 -7.905322 0.87962365 -33.06314 -8.762085 0.22576833
        -34.254627 -9.734447 -0.4970945 -35.437107 -10.837303 -1.2889552
        -36.591953 -12.085365 -2.1484323 -37.694794 -13.491279 -3.072324
        -38.713852 -15.062569 -4.0544395 -39.60867 -16.797329 -5.083237
        -40.330353 -18.678661 -6.1379867 -40.824966 -20.66877 -7.183769
        -41.04159 -22.704136 -8.166547 -40.945312 -24.693996 -9.010446
        -40.53367 -26.524673 -9.619782 -39.852337 -28.071415 -9.887858
        -39.00401 -29.216835 -9.711884 -38.14508 -29.872408 -9.011198
        -35.223564 -28.209057 -7.248624 -0.1070025 -0.28326416 0.47192907
        -0.097409725 -0.31662178 0.46143293 -0.08129978 -0.344285 0.45411825
        -0.061659813 -0.3646412 0.45067167 -0.04135084 -0.37745476 0.45092583
        -0.022603035 -0.38350964 0.45415163 -0.0067601204 -0.38419724 0.4593556
        0.0056266785 -0.38104343 0.46557868 0.014604092 -0.3754549 0.4720297
        -9.19317 -0.95231783 3.2931223 -9.514237 -0.978169 3.3753486
        -9.845289 -1.0055006 3.4579334 -10.186689 -1.0344881 3.5406446
        -10.538853 -1.065332 3.6232243 -10.902249 -1.0982598 3.705385
        -11.277416 -1.1335297 3.7868047 -11.664966 -1.1714343 3.8671217
        -12.065588 -1.2123057 3.9459252 -12.480071 -1.2565192 4.022748
        -12.909299 -1.3044988 4.0970564 -13.354267 -1.3567238 4.1682363
        -13.816081 -1.4137352 4.235581 -14.295968 -1.4761425 4.2982736
        -14.795274 -1.544633 4.355373 -15.315465 -1.6199805 4.4057927
        -15.858125 -1.7030563 4.448285 -16.424942 -1.7948412 4.481424
        -17.017704 -1.8964397 4.5035863 -17.63828 -2.0090964 4.512942
        -18.2886 -2.1342154 4.5074387 -18.970646 -2.2733846 4.484797
        -19.686424 -2.4284053 4.442504 -20.437954 -2.6013272 4.377808
        -21.227253 -2.794493 4.28771 -22.0563 -3.0105987 4.1689596
        -22.927034 -3.252755 4.018023 -23.841301 -3.5245748 3.8310587
        -24.800787 -3.8302722 3.6038804 -25.806906 -4.1747813 3.3319237
        -26.860662 -4.5639 3.0102339 -27.962444 -5.004454 2.633483
        -29.111792 -5.5044966 2.1960425 -30.307117 -6.073531 1.6921039
        -31.54545 -6.72277 1.1158386 -32.82208 -7.4653845 0.46153545
        -34.130146 -8.316719 -0.27631104 -35.45997 -9.29433 -1.1030228
        -36.79791 -10.417679 -2.0238092 -38.124638 -11.707203 -3.043711
        -39.41256 -13.182323 -4.1670046 -40.622692 -14.857982 -5.3954086
        -41.701744 -16.73929 -6.7243485 -42.58114 -18.814287 -8.136759
        -43.180283 -21.045504 -9.594782 -43.416653 -23.3621 -11.03101
        -43.22397 -25.655807 -12.342703 -42.57672 -27.784412 -13.393221
        -41.51525 -29.58608 -14.024429 -40.161747 -30.904419 -14.080382
        -38.717594 -31.619343 -13.437389 -37.437843 -31.673954 -12.030669
        -26.271149 -22.364359 -6.94005 -0.13286352 -0.32188034 0.4512329
        -0.10856342 -0.35739326 0.43709564 -0.07981014 -0.38248348 0.42985106
        -0.050997734 -0.3971796 0.4290409 -0.025260925 -0.40299797 0.433208
        -0.004306793 -0.40206432 0.44059825 0.01140213 -0.39659357 0.4495623
        0.022220612 -0.38848305 0.45883834 -9.238635 -0.8749169 3.3020053
        -9.561903 -0.89798784 3.3834698 -9.8953495 -0.92239696 3.4651942
        -10.239361 -0.9483021 3.546942 -10.59438 -0.975883 3.6284509
        -10.960909 -1.005344 3.7094288 -11.339518 -1.0369171 3.7895486
        -11.730857 -1.0708655 3.8684418 -12.135665 -1.1074879 3.9456909
        -12.554774 -1.147122 4.0208197 -12.98913 -1.1901507 4.093283
        -13.439787 -1.2370067 4.1624537 -13.907925 -1.2881792 4.227606
        -14.39485 -1.344221 4.287901 -14.901998 -1.4057567 4.3423686
        -15.430941 -1.4734913 4.3898873 -15.983373 -1.5482213 4.429166
        -16.561115 -1.630846 4.458722 -17.166103 -1.7223821 4.4768667
        -17.800371 -1.8239799 4.4816875 -18.466042 -1.936944 4.4710326
        -19.165316 -2.0627577 4.442505 -19.900455 -2.2031128 4.393446
        -20.673779 -2.3599482 4.3209286 -21.48765 -2.5354958 4.22174
        -22.344467 -2.7323463 4.0923667 -23.246668 -2.953514 3.9289484
        -24.196682 -3.202534 3.7272344 -25.196907 -3.4835737 3.4825218
        -26.249603 -3.8015718 3.1895974 -27.356781 -4.162405 2.8426747
        -28.520025 -4.5730968 2.4353728 -29.740305 -5.0420713 1.960717
        -31.017727 -5.5794587 1.4111655 -32.351295 -6.197464 0.77863634
        -33.738575 -6.9107714 0.05446267 -35.17517 -7.7369394 -0.770779
        -36.653866 -8.6966915 -1.7075908 -38.163006 -9.813856 -2.7679672
        -39.683914 -11.114674 -3.9656074 -41.186966 -12.625896 -5.315313
        -42.626553 -14.371094 -6.830616 -43.93589 -16.364525 -8.518473
        -45.023792 -18.602158 -10.37006 -45.77694 -21.050362 -12.347799
        -46.07173 -23.63434 -14.370869 -45.798306 -26.23004 -16.303839
        -44.89617 -28.665695 -17.955912 -43.39306 -30.738064 -19.097443
        -41.432632 -32.245094 -19.496115 -39.274414 -33.02861 -18.965582
        -37.257565 -33.013187 -17.410194 -35.73623 -32.225227 -14.846976
        -5.225394 -4.74294 -1.2768831 -0.14229679 -0.37428284 0.41331863
        -0.10100555 -0.40397072 0.40078163 -0.060943604 -0.4199133 0.39881134
        -0.026420593 -0.42456436 0.4047637 0.0006198883 -0.421134 0.41555834
        0.019984245 -0.41261864 0.42855954 0.032567024 -0.40146208 0.44182897
        -9.280345 -0.7952594 3.3112545 -9.605609 -0.8153409 3.392085
        -9.941222 -0.8365996 3.4730885 -10.287594 -0.85917395 3.554025
        -10.645191 -0.8832212 3.6346278 -11.014541 -0.9089204 3.7146006
        -11.396246 -0.9364749 3.7936113 -11.790993 -0.9661156 3.8712857
        -12.199555 -0.9981043 3.9471993 -12.622816 -1.032738 4.0208683
        -13.061766 -1.0703532 4.0917363 -13.517518 -1.1113311 4.159163
        -13.991318 -1.1561033 4.2224064 -14.484543 -1.2051581 4.2806067
        -14.998713 -1.2590488 4.332767 -15.535491 -1.3184015 4.377733
        -16.096678 -1.3839245 4.414172 -16.684216 -1.456421 4.440551
        -17.300177 -1.5368016 4.455119 -17.946747 -1.6261008 4.455887
        -18.626236 -1.7254964 4.4406123 -19.34105 -1.8363343 4.406784
        -20.093695 -1.9601579 4.351609 -20.88678 -2.098746 4.2719955
        -21.723011 -2.2541587 4.1645265 -22.605202 -2.4288073 4.0254374
        -23.53628 -2.625516 3.850552 -24.519281 -2.8476267 3.6352224
        -25.55733 -3.0991156 3.3742406 -26.653572 -3.3847432 3.0617435
        -27.811096 -3.7102418 2.6911142 -29.032806 -4.0825486 2.2548957
        -30.321268 -4.510108 1.7447095 -31.678562 -5.0032425 1.1511713
        -33.106064 -5.5746183 0.46374154 -34.604183 -6.239788 -0.32956147
        -36.1718 -7.0177846 -1.2426658 -37.805225 -7.9316583 -2.2922158
        -39.496166 -9.008751 -3.4984908 -41.22823 -10.28034 -4.886098
        -42.971485 -11.780064 -6.483616 -44.675137 -13.540309 -8.320831
        -46.259247 -15.585636 -10.42181 -47.60822 -17.922413 -12.792117
        -48.57075 -20.524792 -15.399849 -48.972305 -23.318792 -18.152668
        -48.645782 -26.169415 -20.87772 -47.480835 -28.878433 -23.315594
        -45.482185 -31.201443 -25.140755 -42.81528 -32.88807 -26.01458
        -39.812157 -33.73843 -25.661755 -36.921455 -33.656487 -23.943123
        -34.613197 -32.67708 -20.89244 -33.2747 -30.953018 -16.698238
        -0.18228531 -0.39503098 0.38053322 -0.12444592 -0.4283104 0.36119843
        -0.07018185 -0.44422913 0.35840797 -0.025058746 -0.44660187 0.3674364
        0.008823395 -0.4397583 0.38335943 0.031923294 -0.42760468 0.40206194
        0.045963287 -0.41308737 0.42074585 -9.317348 -0.7136626 3.3203926
        -9.644363 -0.7305775 3.4007115 -9.981876 -0.74849313 3.4811296
        -10.330315 -0.76752657 3.5614028 -10.690165 -0.78781134 3.641262
        -11.061978 -0.8094992 3.720406 -11.446386 -0.8327626 3.798499
        -11.844102 -0.8577977 3.8751614 -12.255937 -0.8848268 3.9499633
        -12.682808 -0.91410244 4.0224123 -13.125754 -0.9459111 4.0919437
        -13.585937 -0.9805775 4.1579046 -14.064657 -1.0184702 4.2195387
        -14.563356 -1.0600065 4.2759676 -15.083629 -1.1056604 4.326171
        -15.627218 -1.1559687 4.368964 -16.19602 -1.2115412 4.4029775
        -16.792084 -1.2730703 4.426635 -17.4176 -1.3413439 4.4381275
        -18.074903 -1.4172595 4.4353995 -18.76646 -1.5018431 4.416126
        -19.494873 -1.5962715 4.3776937 -20.26287 -1.7019011 4.3171887
        -21.073332 -1.8203027 4.2313685 -21.929287 -1.9533048 4.116631
        -22.833935 -2.1030633 3.9689794 -23.790682 -2.2721176 3.7839468
        -24.803146 -2.4634957 3.5565143 -25.875164 -2.680829 3.2809982
        -27.010763 -2.9285042 2.9509203 -28.214123 -3.2118554 2.5588622
        -29.489498 -3.5374117 2.096317 -30.84116 -3.9132202 1.5535176
        -32.273293 -4.349256 0.9192116 -33.78992 -4.8579545 0.18032134
        -35.394703 -5.454854 -0.67863965 -37.09042 -6.159342 -1.6764868
        -38.87783 -6.995423 -2.8366804 -40.753273 -7.992321 -4.188938
        -42.70432 -9.184532 -5.7706575 -44.702774 -10.610739 -7.6271267
        -46.694763 -12.310616 -9.808689 -48.58876 -14.318357 -12.362377
        -50.244663 -16.651588 -15.315327 -51.46971 -19.295324 -18.6484
        -52.030273 -22.18222 -22.26228 -51.68863 -25.174446 -25.944447
        -50.26846 -28.056492 -29.353588 -47.738586 -30.55118 -32.042435
        -44.284164 -32.365784 -33.532078 -40.32316 -33.261917 -33.427032
        -36.43986 -33.12412 -31.529205 -33.248825 -31.995327 -27.896515
        -31.245218 -30.060549 -22.814728 -18.716793 -16.900259 -9.997011
        -0.14851761 -0.45334816 0.3092785 -0.07727718 -0.46747684 0.30658817
        -0.020201683 -0.4663105 0.3206482 0.020905495 -0.45541382 0.34380817
        0.047473907 -0.43942833 0.37013054 0.06243038 -0.42166138 0.39577484
        -9.348795 -0.63042617 3.3288946 -9.677286 -0.64402884 3.4088163
        -10.016397 -0.6584428 3.4887762 -10.366572 -0.67376274 3.568528
        -10.728314 -0.6900969 3.647799 -11.102196 -0.70756835 3.7262857
        -11.488868 -0.7263168 3.8036475 -11.88907 -0.74650145 3.879501
        -12.303641 -0.76830286 3.9534116 -12.733535 -0.7919261 4.0248804
        -13.179821 -0.8176042 4.0933337 -13.643707 -0.8456016 4.1581106
        -14.126538 -0.8762187 4.218441 -14.629813 -0.90979624 4.2734303
        -15.155186 -0.9467217 4.322039 -15.704468 -0.9874347 4.363057
        -16.27964 -1.0324359 4.3950844 -16.882835 -1.0822948 4.4165044
        -17.516357 -1.1376607 4.425463 -18.182655 -1.1992761 4.419845
        -18.884346 -1.2679923 4.397256 -19.62419 -1.3447884 4.3549967
        -20.40512 -1.4307977 4.2900467 -21.230251 -1.5273383 4.199033
        -22.1029 -1.6359512 4.0781937 -23.026615 -1.7584646 3.9233303
        -24.00524 -1.8970418 3.7297192 -25.042917 -2.0542784 3.492012
        -26.144146 -2.233309 3.2041006 -27.313776 -2.4379478 2.8589528
        -28.55702 -2.672871 2.4484222 -29.879444 -2.943857 1.9630327
        -31.286968 -3.2581015 1.3917168 -32.785904 -3.6246312 0.7214512
        -34.382973 -4.0548434 -0.06330645 -36.085224 -4.563187 -0.98150647
        -37.89966 -5.1679883 -2.0568838 -39.832012 -5.8923535 -3.319926
        -41.88415 -6.7650137 -4.810288 -44.048977 -7.8207684 -6.579174
        -46.30196 -9.099942 -8.690442 -48.588554 -10.645871 -11.218105
        -50.808266 -12.499107 -14.236956 -52.798317 -14.686651 -17.80225
        -54.324226 -17.205276 -21.915333 -55.08887 -19.99961 -26.476536
        -54.774185 -22.939812 -31.235184 -53.124115 -25.809498 -35.75972
        -50.058506 -28.318367 -39.459793 -45.777462 -30.15077 -41.685123
        -40.794025 -31.044521 -41.889732 -35.849274 -30.871552 -39.80107
        -31.725693 -29.680298 -35.508633 -29.040863 -27.676413 -29.421719
        -28.116459 -25.152786 -22.12083 -0.17081642 -0.47519684 0.24458313
        -0.08073807 -0.48546886 0.24376488 -0.011112213 -0.4798851 0.2652073
        0.036952972 -0.4648838 0.29790592 0.0663538 -0.44554043 0.3337326
        0.08146477 -0.4252448 0.36775923 -9.373978 -0.5458504 3.3362637
        -9.703642 -0.5560258 3.4158924 -10.044022 -0.56681275 3.4955122
        -10.395574 -0.578283 3.5748746 -10.758816 -0.59051824 3.653705
        -11.134335 -0.60361135 3.7316961 -11.522799 -0.6176684 3.8085055
        -11.924968 -0.63280946 3.8837466 -12.341705 -0.6491715 3.9569798
        -12.773986 -0.6669099 4.0277014 -13.222912 -0.68620145 4.0953326
        -13.689723 -0.7072469 4.159203 -14.175802 -0.7302747 4.2185335
        -14.682691 -0.7555441 4.2724166 -15.212091 -0.78335047 4.3197966
        -15.765873 -0.8140294 4.3594437 -16.346077 -0.8479635 4.389933
        -16.954914 -0.885589 4.409617 -17.594769 -0.92740446 4.416604
        -18.268194 -0.97398096 4.4087324 -18.977917 -1.0259749 4.38355
        -19.726837 -1.0841441 4.3382897 -20.518053 -1.1493677 4.269846
        -21.354872 -1.2226688 4.174738 -22.240847 -1.3052607 4.0490785
        -23.179829 -1.3985703 3.8884985 -24.176014 -1.5043057 3.688064
        -25.234009 -1.6245235 3.442157 -26.358868 -1.7617202 3.144315
        -27.556154 -1.9189525 2.7870402 -28.831991 -2.0999925 2.3615704
        -30.193092 -2.309536 1.8576013 -31.646877 -2.5534787 1.2629403
        -33.20158 -2.8392866 0.5630057 -34.866417 -3.1764817 -0.25993943
        -36.651672 -3.5772772 -1.2279805 -38.568398 -4.05736 -2.3693943
        -40.627323 -4.636801 -3.7212434 -42.83603 -5.3409677 -5.3326726
        -45.193382 -6.201212 -7.2683587 -47.67977 -7.254785 -9.610699
        -50.242134 -8.543127 -12.458057 -52.77407 -10.10721 -15.914932
        -55.093895 -11.978263 -20.068348 -56.928986 -14.162454 -24.945866
        -57.920483 -16.619572 -30.454401 -57.668156 -19.239746 -36.311005
        -55.829834 -21.828072 -41.99436 -52.267593 -24.112865 -46.762978
        -47.18995 -25.79049 -49.778362 -41.205494 -26.60428 -50.325706
        -35.219574 -26.427746 -48.04796 -30.191406 -25.309053 -43.07086
        -26.864544 -23.45072 -35.943604 -25.601608 -21.13756 -27.43216
        -0.18852806 -0.48834324 0.16943169 -0.07940292 -0.49301434 0.17284203
        0.0021648407 -0.482934 0.20405579 0.056259155 -0.46474886 0.2482233
        0.0875206 -0.44339752 0.29496956 0.10197544 -0.4220314 0.33829784
        -9.392343 -0.4602487 3.3420799 -9.722856 -0.46691144 3.421511
        -10.064153 -0.47397867 3.5008996 -10.416702 -0.48149824 3.5799959
        -10.781028 -0.4895246 3.6585228 -11.157729 -0.49811986 3.7361727
        -11.547487 -0.5073546 3.8126001 -11.951077 -0.5173093 3.887416
        -12.369374 -0.52807534 3.960178 -12.803377 -0.5397569 4.030379
        -13.254207 -0.55247235 4.0974355 -13.723126 -0.56635636 4.160671
        -14.211548 -0.58156216 4.2193003 -14.721042 -0.5982641 4.2724056
        -15.253345 -0.6166609 4.31892 -15.810371 -0.6369787 4.3575997
        -16.394207 -0.6594757 4.387001 -17.007116 -0.6844468 4.4054546
        -17.651543 -0.7122295 4.4110413 -18.330116 -0.7432112 4.4015656
        -19.045643 -0.7778385 4.3745346 -19.801132 -0.8166278 4.3271294
        -20.5998 -0.86017984 4.256183 -21.445097 -0.9091944 4.1581373
        -22.340761 -0.96450794 4.0290093 -23.290863 -1.0271037 3.864307
        -24.299873 -1.0981635 3.6589408 -25.372738 -1.1791165 3.4070888
        -26.514952 -1.2717047 3.102024 -27.732628 -1.3780698 2.7358994
        -29.03259 -1.500869 2.299484 -30.42247 -1.6434281 1.7818413
        -31.910868 -1.8099477 1.1699065 -33.50757 -2.0057833 0.44787902
        -35.22384 -2.2378178 -0.40370893 -37.072617 -2.5149522 -1.409457
        -39.068382 -2.848723 -2.601325 -41.226135 -3.2540467 -4.021788
        -43.558533 -3.7500079 -5.7279196 -46.07 -4.3605337 -7.7958302
        -48.745953 -5.114564 -10.323962 -51.535995 -6.0450783 -13.432263
        -54.330612 -7.185872 -17.252266 -56.934334 -8.564792 -21.901253
        -59.04392 -10.191939 -27.433723 -60.248283 -12.042571 -33.76768
        -60.0744 -14.037352 -40.596725 -58.100655 -16.027779 -47.322582
        -54.132034 -17.799883 -53.066143 -48.379208 -19.109016 -56.812176
        -41.534184 -19.74504 -57.683735 -34.651325 -19.603651 -55.2419
        -28.850786 -18.724268 -49.64728 -24.988682 -17.272247 -41.583847
        -23.460583 -15.478377 -31.993385 -15.081587 -8.596689 -13.465384
        -0.073020935 -0.48511362 0.09992027 0.018548965 -0.47165394 0.14249611
        0.07710266 -0.452281 0.19899273 0.10911942 -0.431149 0.25701046
        0.1222496 -0.41079497 0.30970764 -9.403494 -0.37395284 3.346031
        -9.734518 -0.37704659 3.425352 -10.076368 -0.38033304 3.504611
        -10.429516 -0.38383552 3.5835567 -10.794494 -0.3875808 3.6619112
        -11.171906 -0.39159942 3.7393658 -11.562442 -0.39592612 3.8155735
        -11.966884 -0.40060052 3.8901443 -12.38612 -0.40566787 3.9626338
        -12.821156 -0.4111796 4.032533 -13.273129 -0.41719443 4.099256
        -13.743313 -0.42377916 4.1621222 -14.233139 -0.43100998 4.2203417
        -14.744196 -0.4389738 4.272992 -15.278244 -0.44776967 4.3189993
        -15.837216 -0.4575107 4.3571105 -16.42323 -0.46832627 4.385872
        -17.03858 -0.48036438 4.4035997 -17.685755 -0.49379477 4.4083595
        -18.367418 -0.50881296 4.3979344 -19.08644 -0.52564454 4.3698063
        -19.84588 -0.5445514 4.3211274 -20.649033 -0.5658389 4.2486916
        -21.49944 -0.58986217 4.1488957 -22.40095 -0.6170522 4.0176964
        -23.357769 -0.6479121 3.850528 -24.374542 -0.6830503 3.642206
        -25.45643 -0.7232052 3.3867855 -26.609196 -0.76927984 3.0773754
        -27.839306 -0.82238865 2.7059133 -29.15403 -0.8839189 2.2628772
        -30.561583 -0.95561385 1.7369356 -32.071335 -1.0396849 1.1144803
        -33.694084 -1.1389624 0.3789351 -35.442436 -1.2571015 -0.4902768
        -37.3311 -1.3988507 -1.5193824 -39.37686 -1.5704024 -2.742736
        -41.59763 -1.7798116 -4.206387 -44.009644 -2.0374599 -5.9726987
        -46.62127 -2.3564777 -8.125498 -49.42179 -2.752915 -10.774233
        -52.36332 -3.2453284 -14.053875 -55.3352 -3.8531098 -18.1152
        -58.133793 -4.592931 -23.097645 -60.4361 -5.4722905 -29.076496
        -61.79574 -6.4799595 -35.98027 -61.689007 -7.5746107 -43.489315
        -59.636986 -8.675657 -50.953175 -55.401512 -9.663949 -57.394974
        -49.19158 -10.400465 -61.67044 -41.756516 -10.763935 -62.782333
        -34.256733 -10.693756 -60.230045 -27.927456 -10.212069 -54.199635
        -23.70452 -9.411465 -45.47452 -22.005186 -8.422463 -35.1255
        -22.739191 -7.372397 -24.16394 -0.06264877 -0.4588108 0.033802032
        0.035787582 -0.4442339 0.08768463 0.09689903 -0.42648244 0.15564537
        0.12874031 -0.40831864 0.22376347 0.14019203 -0.39135516 0.28471184
        -9.407198 -0.287311 3.3479257 -9.738386 -0.28680822 3.42722
        -10.080416 -0.28628397 3.506446 -10.433756 -0.285737 3.5853515
        -10.798944 -0.285166 3.6636596 -11.176585 -0.28456965 3.7410598
        -11.567371 -0.28394648 3.817206 -11.972087 -0.28329498 3.891707
        -12.391624 -0.28261352 3.964118 -12.826993 -0.2819005 4.033929
        -13.279332 -0.2811541 4.1005535 -13.749924 -0.2803726 4.1633105
        -14.2402 -0.2795541 4.2214074 -14.751759 -0.27869678 4.2739215
        -15.286366 -0.27779874 4.319775 -15.845962 -0.27685812 4.3577137
        -16.432674 -0.27587327 4.3862786 -17.04881 -0.27484262 4.4037843
        -17.696863 -0.27376488 4.4082875 -18.379519 -0.2726392 4.3975687
        -19.099659 -0.2714652 4.369099 -19.860367 -0.27024332 4.320023
        -20.664959 -0.26897517 4.2471204 -21.51701 -0.26765987 4.1467752
        -22.4204 -0.26630908 4.014925 -23.379385 -0.26492697 3.8469806
        -24.398663 -0.26352453 3.637727 -25.483469 -0.26211643 3.3811793
        -26.63966 -0.26072344 3.070397 -27.87382 -0.25937334 2.6972456
        -29.193375 -0.258103 2.252112 -30.606743 -0.25696117 1.7235352
        -32.123558 -0.25601184 1.0977272 -33.754982 -0.25533745 0.3578564
        -35.514107 -0.25504586 -0.51702476 -37.41628 -0.25527626 -1.5536933
        -39.479122 -0.25620893 -2.7873354 -41.72164 -0.2580788 -4.265243
        -44.161415 -0.2611854 -6.051644 -46.808357 -0.26590922 -8.233131
        -49.653328 -0.2727119 -10.923141 -52.649574 -0.28212786 -14.26219
        -55.686417 -0.29466525 -18.408283 -58.55761 -0.31079498 -23.509377
        -60.933346 -0.33086312 -29.6491 -62.35451 -0.35513723 -36.760902
        -62.278557 -0.3838223 -44.521362 -60.204716 -0.41672906 -52.26175
        -55.877617 -0.45243198 -58.96908 -49.504173 -0.48758677 -63.450222
        -41.853737 -0.51768935 -64.661156 -34.127914 -0.5418862 -62.076366
        -27.59932 -0.5533174 -55.8899 -23.241343 -0.5551673 -46.92273
        -21.477327 -0.54604006 -36.294006 -22.20646 -0.5285349 -25.05771
        -0.05042076 -0.4149345 -0.015920639 0.051027298 -0.4020588 0.047096252
        0.11277962 -0.38883135 0.12363434 0.143816 -0.37624803 0.19908905
        0.15373802 -0.3648457 0.26595497 -9.403376 -0.20068084 3.3476994
        -9.734381 -0.19658269 3.4270484 -10.076211 -0.19224893 3.5063357
        -10.429338 -0.1876538 3.5853112 -10.79429 -0.18276796 3.6636958
        -11.171675 -0.17755826 3.7411814 -11.56218 -0.17198703 3.8174217
        -11.966588 -0.1660116 3.8920262 -12.385787 -0.15958364 3.9645503
        -12.820781 -0.15264839 4.0344853 -13.272707 -0.14514367 4.1012454
        -13.742841 -0.13699917 4.1641507 -14.232609 -0.12813495 4.222411
        -14.743601 -0.11846063 4.2751045 -15.277575 -0.10787333 4.321157
        -15.836466 -0.096256465 4.3593163 -16.422388 -0.08347732 4.3881288
        -17.037636 -0.069385014 4.4059124 -17.684692 -0.05380715 4.4107313
        -18.366226 -0.03654682 4.400372 -19.085098 -0.017377893 4.3723173
        -19.844372 0.0039602313 4.32372 -20.647333 0.027769648 4.251376
        -21.497524 0.05440662 4.1516867 -22.398792 0.084278695 4.020611
        -23.35534 0.11787961 3.853588 -24.371805 0.15579617 3.6454396
        -25.453344 0.19873568 3.3902268 -26.60573 0.24755901 3.0810714
        -27.835419 0.30332446 2.7099214 -29.149685 0.36734402 2.2672703
        -30.556751 0.44126257 1.741808 -32.065998 0.52716196 1.1199453
        -33.688255 0.6277065 0.38514018 -35.436172 0.74633515 -0.48315477
        -37.324516 0.8875194 -1.5111327 -39.37018 1.0570922 -2.7331247
        -41.591244 1.2626488 -4.195167 -44.004158 1.5139842 -5.9596543
        -46.617615 1.8234949 -8.110525 -49.42131 2.2063522 -10.757456
        -52.367847 2.680119 -14.035892 -55.347095 3.2632613 -18.097382
        -58.15573 3.971654 -23.082539 -60.470695 4.8122787 -29.068245
        -61.844765 5.773597 -35.9849 -61.75231 6.8140955 -43.51438
        -59.711433 7.853666 -51.00661 -55.480587 8.775761 -57.482956
        -49.265873 9.447244 -61.794716 -41.815536 9.754614 -62.93829
        -34.291756 9.642409 -60.40705 -27.935596 9.135299 -54.383816
        -23.688648 8.330111 -45.65237 -21.971151 7.3566985 -35.28664
        -22.69404 6.338095 -24.30251 -0.039022446 -0.35859203 -0.04139328
        0.06153679 -0.3498466 0.026569366 0.12229729 -0.34327984 0.10714054
        0.15230942 -0.3380463 0.18589973 0.1612339 -0.3336221 0.25546074
        -9.392106 -0.11442012 3.3454156 -9.722583 -0.10675617 3.424902
        -10.063841 -0.09864512 3.5043476 -10.416344 -0.09003683 3.5835025
        -10.780621 -0.08087428 3.66209 -11.157269 -0.071092784 3.7398021
        -11.546966 -0.060618892 3.8162942 -11.950488 -0.049369268 3.8911767
        -12.368712 -0.037249327 3.9640076 -12.802631 -0.02415179 4.0342803
        -13.25337 -0.00995499 4.1014113 -13.722187 0.00547921 4.164725
        -14.210493 0.022307446 4.2234354 -14.719858 0.04070764 4.2766266
        -15.252019 0.060881846 4.3232307 -15.808883 0.08305952 4.362006
        -16.392536 0.10750186 4.3915095 -17.005241 0.13450636 4.4100733
        -17.649437 0.16441257 4.4157786 -18.327751 0.19760907 4.406434
        -19.042986 0.23454195 4.3795466 -19.798143 0.27572572 4.3323035
        -20.596436 0.3217571 4.261539 -21.441309 0.37333554 4.163704
        -22.336494 0.43127316 4.034819 -23.286058 0.49654245 3.8704028
        -24.294464 0.57030165 3.6653757 -25.366657 0.65394664 3.413933
        -26.508121 0.7491748 3.1093657 -27.724976 0.85806906 2.7438498
        -29.024046 0.98320794 2.3081832 -30.412981 1.1278155 1.7914691
        -31.900408 1.2959602 1.1806858 -33.496166 1.492828 0.46008807
        -35.2116 1.725085 -0.38973546 -37.059788 2.0013561 -1.3933282
        -39.055405 2.3328304 -2.5825968 -41.21376 2.7339864 -4.0000105
        -43.54795 3.2233655 -5.702704 -46.06298 3.8242383 -7.767
        -48.745052 4.5647926 -10.291815 -51.544685 5.4772167 -13.397965
        -54.353252 6.5946493 -17.218426 -56.975914 7.944522 -21.872665
        -59.109184 9.536886 -27.418083 -60.340294 11.347238 -33.775944
        -60.19267 13.296621 -40.642563 -58.239243 15.237242 -47.420235
        -54.278725 16.957016 -53.226505 -48.51669 18.215115 -57.0382
        -41.643627 18.806313 -57.96722 -34.717896 18.630077 -55.564045
        -28.868786 17.728588 -49.983463 -24.962097 16.269817 -41.909725
        -23.399763 14.484767 -32.290054 -15.01885 7.6920033 -13.686752
        -0.030563354 -0.2979536 -0.039237976 0.065683365 -0.29455996 0.028524399
        0.12416649 -0.29537344 0.1079483 0.15322685 -0.2979455 0.18549252
        0.1618967 -0.30082464 0.25415993 -9.373626 -0.028876746 3.3412628
        -9.703236 -0.017705359 3.4209743 -10.043556 -0.005880424 3.5006793
        -10.395042 0.0066720895 3.5801299 -10.758211 0.020036288 3.65905
        -11.133649 0.034307733 3.7371347 -11.522024 0.04959494 3.8140404
        -11.924094 0.06602104 3.8893814 -12.34072 0.08372577 3.9627175
        -12.772879 0.10286764 4.0335464 -13.221669 0.12362652 4.101289
        -13.688327 0.14620641 4.1652756 -14.174237 0.17083874 4.224727
        -14.680936 0.19778623 4.2787375 -15.210123 0.22734696 4.326252
        -15.763666 0.25985965 4.3660417 -16.343603 0.29570934 4.3966827
        -16.952139 0.33533427 4.4165297 -17.591656 0.37923425 4.4236937
        -18.264698 0.42798054 4.416015 -18.973988 0.48222846 4.3910456
        -19.722424 0.5427326 4.3460236 -20.51309 0.61036646 4.277848
        -21.349287 0.6861507 4.1830487 -22.234566 0.77127373 4.0577455
        -23.172766 0.8671484 3.8975835 -24.168074 0.97545636 3.6976438
        -25.22509 1.0982182 3.45233 -26.348867 1.2378824 3.1552057