# vtk DataFile Version 3.0
SM polar seed points transformed to GSW coordinates
ASCII
DATASET POLYDATA
POINTS      288 float
       0.682063       0.000000       1.335960
       0.656541       0.194114       1.334643
       0.581716       0.375000       1.330783
       0.462685       0.530330       1.324641
       0.307561       0.649519       1.316636
       0.126916       0.724444       1.307315
      -0.066940       0.750000       1.297312
      -0.260797       0.724444       1.287309
      -0.441442       0.649519       1.277988
      -0.596566       0.530330       1.269984
      -0.715596       0.375000       1.263842
      -0.790422       0.194114       1.259981
      -0.815944      -0.000000       1.258664
      -0.790422      -0.194114       1.259981
      -0.715596      -0.375000       1.263842
      -0.596566      -0.530330       1.269984
      -0.441442      -0.649519       1.277988
      -0.260797      -0.724444       1.287309
      -0.066940      -0.750000       1.297312
       0.126916      -0.724444       1.307315
       0.307561      -0.649519       1.316636
       0.462685      -0.530330       1.324641
       0.581716      -0.375000       1.330783
       0.656541      -0.194114       1.334643
       0.563031       0.000000       1.390322
       0.541459       0.164072       1.389209
       0.478214       0.316964       1.385946
       0.377605       0.448254       1.380754
       0.246488       0.548997       1.373989
       0.093800       0.612327       1.366110
      -0.070054       0.633927       1.357656
      -0.233909       0.612327       1.349201
      -0.386597       0.548997       1.341322
      -0.517713       0.448254       1.334557
      -0.618322       0.316964       1.329365
      -0.681567       0.164073       1.326102
      -0.703139      -0.000000       1.324989
      -0.681567      -0.164073       1.326102
      -0.618322      -0.316964       1.329365
      -0.517713      -0.448254       1.334557
      -0.386597      -0.548997       1.341322
      -0.233909      -0.612327       1.349201
      -0.070054      -0.633927       1.357656
       0.093800      -0.612327       1.366110
       0.246488      -0.548997       1.373989
       0.377605      -0.448254       1.380754
       0.478214      -0.316964       1.385946
       0.541459      -0.164073       1.389209
       0.439714       0.000000       1.434103
       0.422256       0.132782       1.433202
       0.371072       0.256515       1.430561
       0.289651       0.362767       1.426360
       0.183540       0.444297       1.420885
       0.059971       0.495549       1.414509
      -0.072635       0.513030       1.407666
      -0.205240       0.495549       1.400824
      -0.328809       0.444297       1.394448
      -0.434920       0.362767       1.388973
      -0.516342       0.256515       1.384771
      -0.567525       0.132782       1.382130
      -0.584983      -0.000000       1.381229
      -0.567525      -0.132782       1.382130
      -0.516342      -0.256515       1.384771
      -0.434920      -0.362767       1.388973
      -0.328809      -0.444297       1.394448
      -0.205240      -0.495549       1.400824
      -0.072635      -0.513030       1.407666
       0.059971      -0.495549       1.414509
       0.183540      -0.444297       1.420885
       0.289651      -0.362767       1.426360
       0.371072      -0.256515       1.430561
       0.422256      -0.132782       1.433202
       0.313050       0.000000       1.466969
       0.299839       0.100481       1.466288
       0.261107       0.194114       1.464289
       0.199492       0.274519       1.461110
       0.119194       0.336216       1.456967
       0.025685       0.375000       1.452142
      -0.074662       0.388229       1.446964
      -0.175010       0.375000       1.441786
      -0.268519       0.336216       1.436961
      -0.348817       0.274519       1.432818
      -0.410431       0.194114       1.429638
      -0.449164       0.100481       1.427640
      -0.462375      -0.000000       1.426958
      -0.449164      -0.100481       1.427640
      -0.410431      -0.194114       1.429638
      -0.348817      -0.274519       1.432818
      -0.268519      -0.336216       1.436961
      -0.175010      -0.375000       1.441786
      -0.074662      -0.388229       1.446964
       0.025685      -0.375000       1.452142
       0.119194      -0.336216       1.456967
       0.199492      -0.274519       1.461110
       0.261107      -0.194114       1.464289
       0.299839      -0.100481       1.466288
       0.184004       0.000000       1.488671
       0.175141       0.067415       1.488214
       0.149154       0.130236       1.486873
       0.107815       0.184182       1.484740
       0.053941       0.225576       1.481960
      -0.008796       0.251597       1.478723
      -0.076122       0.260472       1.475249
      -0.143447       0.251597       1.471775
      -0.206185       0.225576       1.468538
      -0.260059       0.184182       1.465758
      -0.301398       0.130236       1.463625
      -0.327385       0.067415       1.462284
      -0.336248      -0.000000       1.461827
      -0.327385      -0.067415       1.462284
      -0.301398      -0.130236       1.463625
      -0.260059      -0.184182       1.465758
      -0.206185      -0.225576       1.468538
      -0.143447      -0.251597       1.471775
      -0.076122      -0.260472       1.475249
      -0.008796      -0.251597       1.478723
       0.053941      -0.225576       1.481960
       0.107815      -0.184182       1.484740
       0.149154      -0.130236       1.486873
       0.175141      -0.067415       1.488214
       0.053558       0.000000       1.499044
       0.049109       0.033836       1.498814
       0.036066       0.065367       1.498141
       0.015318       0.092443       1.497070
      -0.011722       0.113219       1.495675
      -0.043211       0.126279       1.494050
      -0.077002       0.130734       1.492307
      -0.110793       0.126279       1.490563
      -0.142282       0.113219       1.488938
      -0.169322       0.092443       1.487543
      -0.190070       0.065367       1.486472
      -0.203113       0.033836       1.485799
      -0.207562      -0.000000       1.485570
      -0.203113      -0.033836       1.485799
      -0.190070      -0.065367       1.486472
      -0.169322      -0.092443       1.487543
      -0.142282      -0.113219       1.488938
      -0.110793      -0.126279       1.490563
      -0.077002      -0.130734       1.492307
      -0.043211      -0.126279       1.494050
      -0.011722      -0.113219       1.495675
       0.015318      -0.092443       1.497070
       0.036066      -0.065367       1.498141
       0.049109      -0.033836       1.498814
       0.815944       0.000000      -1.258664
       0.790422       0.194114      -1.259981
       0.715596       0.375000      -1.263842
       0.596566       0.530330      -1.269984
       0.441442       0.649519      -1.277988
       0.260797       0.724444      -1.287309
       0.066940       0.750000      -1.297312
      -0.126916       0.724444      -1.307315
      -0.307561       0.649519      -1.316636
      -0.462685       0.530330      -1.324641
      -0.581716       0.375000      -1.330783
      -0.656541       0.194114      -1.334643
      -0.682063      -0.000000      -1.335960
      -0.656541      -0.194114      -1.334643
      -0.581716      -0.375000      -1.330783
      -0.462685      -0.530330      -1.324641
      -0.307561      -0.649519      -1.316636
      -0.126916      -0.724444      -1.307315
       0.066940      -0.750000      -1.297312
       0.260797      -0.724444      -1.287309
       0.441442      -0.649519      -1.277988
       0.596566      -0.530330      -1.269984
       0.715596      -0.375000      -1.263842
       0.790422      -0.194114      -1.259981
       0.703139       0.000000      -1.324989
       0.681567       0.164072      -1.326102
       0.618322       0.316964      -1.329365
       0.517713       0.448254      -1.334557
       0.386597       0.548997      -1.341322
       0.233909       0.612327      -1.349201
       0.070054       0.633927      -1.357656
      -0.093800       0.612327      -1.366110
      -0.246489       0.548997      -1.373989
      -0.377605       0.448254      -1.380754
      -0.478214       0.316964      -1.385946
      -0.541459       0.164073      -1.389209
      -0.563031      -0.000000      -1.390322
      -0.541459      -0.164073      -1.389209
      -0.478214      -0.316964      -1.385946
      -0.377605      -0.448254      -1.380754
      -0.246488      -0.548997      -1.373989
      -0.093800      -0.612327      -1.366110
       0.070054      -0.633927      -1.357656
       0.233909      -0.612327      -1.349201
       0.386597      -0.548997      -1.341322
       0.517713      -0.448254      -1.334557
       0.618322      -0.316964      -1.329365
       0.681567      -0.164073      -1.326102
       0.584983       0.000000      -1.381229
       0.567525       0.132782      -1.382130
       0.516342       0.256515      -1.384771
       0.434920       0.362767      -1.388973
       0.328809       0.444297      -1.394448
       0.205240       0.495549      -1.400824
       0.072635       0.513030      -1.407666
      -0.059971       0.495549      -1.414509
      -0.183540       0.444297      -1.420885
      -0.289651       0.362767      -1.426360
      -0.371072       0.256515      -1.430561
      -0.422256       0.132782      -1.433202
      -0.439714      -0.000000      -1.434103
      -0.422256      -0.132782      -1.433202
      -0.371072      -0.256515      -1.430561
      -0.289651      -0.362767      -1.426360
      -0.183540      -0.444297      -1.420885
      -0.059971      -0.495549      -1.414509
       0.072635      -0.513030      -1.407666
       0.205240      -0.495549      -1.400824
       0.328809      -0.444297      -1.394448
       0.434920      -0.362767      -1.388973
       0.516342      -0.256515      -1.384771
       0.567525      -0.132782      -1.382130
       0.462375       0.000000      -1.426958
       0.449164       0.100481      -1.427640
       0.410431       0.194114      -1.429638
       0.348817       0.274519      -1.432818
       0.268519       0.336216      -1.436961
       0.175010       0.375000      -1.441786
       0.074662       0.388229      -1.446964
      -0.025685       0.375000      -1.452142
      -0.119194       0.336216      -1.456967
      -0.199492       0.274519      -1.461110
      -0.261107       0.194114      -1.464289
      -0.299839       0.100481      -1.466288
      -0.313050      -0.000000      -1.466969
      -0.299839      -0.100481      -1.466288
      -0.261107      -0.194114      -1.464289
      -0.199492      -0.274519      -1.461110
      -0.119194      -0.336216      -1.456967
      -0.025685      -0.375000      -1.452142
       0.074662      -0.388229      -1.446964
       0.175010      -0.375000      -1.441786
       0.268519      -0.336216      -1.436961
       0.348817      -0.274519      -1.432818
       0.410431      -0.194114      -1.429638
       0.449164      -0.100481      -1.427640
       0.336248       0.000000      -1.461827
       0.327385       0.067415      -1.462284
       0.301398       0.130236      -1.463625
       0.260059       0.184182      -1.465758
       0.206185       0.225576      -1.468538
       0.143447       0.251597      -1.471775
       0.076122       0.260472      -1.475249
       0.008796       0.251597      -1.478723
      -0.053941       0.225576      -1.481960
      -0.107815       0.184182      -1.484740
      -0.149154       0.130236      -1.486873
      -0.175141       0.067415      -1.488214
      -0.184004      -0.000000      -1.488671
      -0.175141      -0.067415      -1.488214
      -0.149154      -0.130236      -1.486873
      -0.107815      -0.184182      -1.484740
      -0.053941      -0.225576      -1.481960
       0.008796      -0.251597      -1.478723
       0.076122      -0.260472      -1.475249
       0.143447      -0.251597      -1.471775
       0.206185      -0.225576      -1.468538
       0.260059      -0.184182      -1.465758
       0.301398      -0.130236      -1.463625
       0.327385      -0.067415      -1.462284
       0.207562       0.000000      -1.485570
       0.203113       0.033836      -1.485799
       0.190070       0.065367      -1.486472
       0.169322       0.092443      -1.487543
       0.142282       0.113219      -1.488938
       0.110793       0.126279      -1.490563
       0.077002       0.130734      -1.492307
       0.043211       0.126279      -1.494050
       0.011722       0.113219      -1.495675
      -0.015318       0.092443      -1.497070
      -0.036066       0.065367      -1.498141
      -0.049109       0.033836      -1.498814
      -0.053558      -0.000000      -1.499044
      -0.049109      -0.033836      -1.498814
      -0.036066      -0.065367      -1.498141
      -0.015318      -0.092443      -1.497070
       0.011722      -0.113219      -1.495675
       0.043211      -0.126279      -1.494050
       0.077002      -0.130734      -1.492307
       0.110793      -0.126279      -1.490563
       0.142282      -0.113219      -1.488938
       0.169322      -0.092443      -1.487543
       0.190070      -0.065367      -1.486472
       0.203113      -0.033836      -1.485799
VERTICES      288     576
 1        0
 1        1
 1        2
 1        3
 1        4
 1        5
 1        6
 1        7
 1        8
 1        9
 1       10
 1       11
 1       12
 1       13
 1       14
 1       15
 1       16
 1       17
 1       18
 1       19
 1       20
 1       21
 1       22
 1       23
 1       24
 1       25
 1       26
 1       27
 1       28
 1       29
 1       30
 1       31
 1       32
 1       33
 1       34
 1       35
 1       36
 1       37
 1       38
 1       39
 1       40
 1       41
 1       42
 1       43
 1       44
 1       45
 1       46
 1       47
 1       48
 1       49
 1       50
 1       51
 1       52
 1       53
 1       54
 1       55
 1       56
 1       57
 1       58
 1       59
 1       60
 1       61
 1       62
 1       63
 1       64
 1       65
 1       66
 1       67
 1       68
 1       69
 1       70
 1       71
 1       72
 1       73
 1       74
 1       75
 1       76
 1       77
 1       78
 1       79
 1       80
 1       81
 1       82
 1       83
 1       84
 1       85
 1       86
 1       87
 1       88
 1       89
 1       90
 1       91
 1       92
 1       93
 1       94
 1       95
 1       96
 1       97
 1       98
 1       99
 1      100
 1      101
 1      102
 1      103
 1      104
 1      105
 1      106
 1      107
 1      108
 1      109
 1      110
 1      111
 1      112
 1      113
 1      114
 1      115
 1      116
 1      117
 1      118
 1      119
 1      120
 1      121
 1      122
 1      123
 1      124
 1      125
 1      126
 1      127
 1      128
 1      129
 1      130
 1      131
 1      132
 1      133
 1      134
 1      135
 1      136
 1      137
 1      138
 1      139
 1      140
 1      141
 1      142
 1      143
 1      144
 1      145
 1      146
 1      147
 1      148
 1      149
 1      150
 1      151
 1      152
 1      153
 1      154
 1      155
 1      156
 1      157
 1      158
 1      159
 1      160
 1      161
 1      162
 1      163
 1      164
 1      165
 1      166
 1      167
 1      168
 1      169
 1      170
 1      171
 1      172
 1      173
 1      174
 1      175
 1      176
 1      177
 1      178
 1      179
 1      180
 1      181
 1      182
 1      183
 1      184
 1      185
 1      186
 1      187
 1      188
 1      189
 1      190
 1      191
 1      192
 1      193
 1      194
 1      195
 1      196
 1      197
 1      198
 1      199
 1      200
 1      201
 1      202
 1      203
 1      204
 1      205
 1      206
 1      207
 1      208
 1      209
 1      210
 1      211
 1      212
 1      213
 1      214
 1      215
 1      216
 1      217
 1      218
 1      219
 1      220
 1      221
 1      222
 1      223
 1      224
 1      225
 1      226
 1      227
 1      228
 1      229
 1      230
 1      231
 1      232
 1      233
 1      234
 1      235
 1      236
 1      237
 1      238
 1      239
 1      240
 1      241
 1      242
 1      243
 1      244
 1      245
 1      246
 1      247
 1      248
 1      249
 1      250
 1      251
 1      252
 1      253
 1      254
 1      255
 1      256
 1      257
 1      258
 1      259
 1      260
 1      261
 1      262
 1      263
 1      264
 1      265
 1      266
 1      267
 1      268
 1      269
 1      270
 1      271
 1      272
 1      273
 1      274
 1      275
 1      276
 1      277
 1      278
 1      279
 1      280
 1      281
 1      282
 1      283
 1      284
 1      285
 1      286
 1      287
POINT_DATA      288
SCALARS hemisphere int 1
LOOKUP_TABLE default
 1
 1
 1
 1
 1
 1
 1
 1
 1
 1
 1
 1
 1
 1
 1
 1
 1
 1
 1
 1
 1
 1
 1
 1
 1
 1
 1
 1
 1
 1
 1
 1
 1
 1
 1
 1
 1
 1
 1
 1
 1
 1
 1
 1
 1
 1
 1
 1
 1
 1
 1
 1
 1
 1
 1
 1
 1
 1
 1
 1
 1
 1
 1
 1
 1
 1
 1
 1
 1
 1
 1
 1
 1
 1
 1
 1
 1
 1
 1
 1
 1
 1
 1
 1
 1
 1
 1
 1
 1
 1
 1
 1
 1
 1
 1
 1
 1
 1
 1
 1
 1
 1
 1
 1
 1
 1
 1
 1
 1
 1
 1
 1
 1
 1
 1
 1
 1
 1
 1
 1
 1
 1
 1
 1
 1
 1
 1
 1
 1
 1
 1
 1
 1
 1
 1
 1
 1
 1
 1
 1
 1
 1
 1
 1
-1
-1
-1
-1
-1
-1
-1
-1
-1
-1
-1
-1
-1
-1
-1
-1
-1
-1
-1
-1
-1
-1
-1
-1
-1
-1
-1
-1
-1
-1
-1
-1
-1
-1
-1
-1
-1
-1
-1
-1
-1
-1
-1
-1
-1
-1
-1
-1
-1
-1
-1
-1
-1
-1
-1
-1
-1
-1
-1
-1
-1
-1
-1
-1
-1
-1
-1
-1
-1
-1
-1
-1
-1
-1
-1
-1
-1
-1
-1
-1
-1
-1
-1
-1
-1
-1
-1
-1
-1
-1
-1
-1
-1
-1
-1
-1
-1
-1
-1
-1
-1
-1
-1
-1
-1
-1
-1
-1
-1
-1
-1
-1
-1
-1
-1
-1
-1
-1
-1
-1
-1
-1
-1
-1
-1
-1
-1
-1
-1
-1
-1
-1
-1
-1
-1
-1
-1
-1
-1
-1
-1
-1
-1
-1
