<?xml version="1.0"?>
<VTKFile type="StructuredGrid" version="0.1" byte_order="LittleEndian" header_type="UInt32" compressor="vtkZLibDataCompressor">
  <StructuredGrid WholeExtent="0 60 0 20 0 20">
  <Piece Extent="0 60 0 20 0 20">
    <PointData Vectors="B_total">
      <DataArray type="Float32" Name="B_total" NumberOfComponents="3" format="ascii" RangeMin="0" RangeMax="59748.32704244499">
        -9.321768 -1.2008073 3.2601438 -9.643021 -1.2340686 3.34507
        -9.973697 -1.268983 3.4306028 -10.314081 -1.3057485 3.516501
        -10.664506 -1.3445908 3.6024928 -11.025348 -1.3857679 3.6882741
        -11.397039 -1.4295734 3.7735026 -11.780074 -1.4763402 3.857793
        -12.175019 -1.5264456 3.9407096 -12.582518 -1.5803157 4.0217586
        -13.003295 -1.6384319 4.100378 -13.438168 -1.7013355 4.175927
        -13.888048 -1.7696351 4.247677 -14.353941 -1.8440137 4.3147926
        -14.836948 -1.9252365 4.376323 -15.338265 -2.0141597 4.4311857
        -15.859171 -2.1117406 4.4781523 -16.401016 -2.219048 4.5158377
        -16.965218 -2.3372767 4.542688 -17.55322 -2.4677594 4.5569725
        -18.166496 -2.6119869 4.556782 -18.806501 -2.7716265 4.5400267
        -19.47465 -2.9485493 4.504444 -20.172289 -3.1448581 4.4476023
        -20.900661 -3.3629258 4.366913 -21.660854 -3.6054373 4.2596383
        -22.453756 -3.875443 4.122907 -23.27999 -4.1764145 3.953711
        -24.139795 -4.512313 3.748929 -25.03291 -4.8876615 3.5053515
        -25.958385 -5.307621 3.2197444 -26.914358 -5.7780685 2.8889556
        -27.89779 -6.3056684 2.510097 -28.904219 -6.8979383 2.080805
        -29.927448 -7.563278 1.5995688 -30.959345 -8.310943 1.0661185
        -31.989595 -9.150891 0.48181182 -33.00552 -10.093448 -0.15001589
        -33.991806 -11.148611 -0.8237729 -34.93019 -12.324883 -1.5313464
        -35.799053 -13.627426 -2.2617707 -36.573086 -15.055406 -3.0005593
        -37.223484 -16.598572 -3.7284431 -37.71936 -18.23339 -4.419398
        -38.0313 -19.919472 -5.0382233 -38.13765 -21.597439 -5.538467
        -38.033478 -23.18986 -5.86199 -37.740616 -24.606363 -5.941531
        -37.316036 -25.753433 -5.7070026 -36.855137 -26.547588 -5.094792
        -6.5253396 -4.8550053 -0.16298485 -0.07373583 -0.0842495 0.66461515
        -0.10259271 -0.10151577 0.64191294 -0.12247133 -0.12535572 0.6148324
        -0.132483 -0.15277195 0.58639073 -0.13331318 -0.18084908 0.55927587
        -0.12675762 -0.20724201 0.5354607 -0.1151123 -0.23043442 0.5160121
        -0.10064983 -0.2497034 0.5012046 -0.08525801 -0.2649846 0.49072087
        -0.07030392 -0.2766199 0.48391885 -9.366978 -1.1198778 3.2603366
        -9.690373 -1.1505728 3.3439927 -10.023403 -1.1828213 3.4281316
        -10.366385 -1.2168078 3.512507 -10.71968 -1.252743 3.596844
        -11.0837 -1.2908676 3.6808338 -11.45892 -1.3314553 3.7641304
        -11.845879 -1.3748173 3.8463435 -12.245193 -1.4213058 3.927031
        -12.657562 -1.4713198 4.0056925 -13.083775 -1.5253097 4.081756
        -13.524715 -1.583784 4.15457 -13.981375 -1.6473144 4.223388
        -14.454845 -1.716545 4.287357 -14.946323 -1.7921989 4.345501
        -15.457111 -1.8750882 4.396705 -15.988605 -1.9661237 4.4397016
        -16.542292 -2.0663273 4.4730554 -17.11973 -2.1768465 4.495152
        -17.722538 -2.2989683 4.504186 -18.352367 -2.4341416 4.498157
        -19.010887 -2.5839992 4.4748645 -19.69976 -2.7503862 4.4319096
        -20.420612 -2.9353964 4.3666954 -21.174997 -3.141414 4.2764297
        -21.964384 -3.3711658 4.1581235 -22.790092 -3.6277862 4.0085936
        -23.653242 -3.9148898 3.8244445 -24.554655 -4.2366557 3.6020715
        -25.49472 -4.5979323 3.337664 -26.473242 -5.0043473 3.0272408
        -27.489185 -5.462433 2.666729 -28.540443 -5.9797688 2.2521052
        -29.623533 -6.565119 1.7795992 -30.73329 -7.2285595 1.2459629
        -31.862549 -7.9815683 0.6487667 -33.001774 -8.83699 -0.013313293
        -34.138577 -9.808791 -0.7402515 -35.257027 -10.911407 -1.5304453
        -36.336662 -12.158495 -2.3804052 -37.351234 -13.560768 -3.284123
        -38.267372 -15.122717 -4.2316995 -39.04389 -16.838081 -5.206868
        -39.632816 -18.684387 -6.1832304 -39.98369 -20.617392 -7.1195707
        -40.05222 -22.567062 -7.95562 -39.81353 -24.43726 -8.610364
        -39.277905 -26.111477 -8.9853115 -38.504696 -27.46566 -8.974153
        -37.60875 -28.387117 -8.478182 -36.754414 -28.794836 -7.4236627
        -10.271209 -8.136967 -1.103961 -0.12543702 -0.07850838 0.70441294
        -0.15102863 -0.10663605 0.6667948 -0.16323137 -0.13906002 0.62701845
        -0.16317701 -0.1719656 0.5891943 -0.15356827 -0.20242691 0.5561888
        -0.13771057 -0.22864819 0.52948594 -0.11872625 -0.24991703 0.50934887
        -0.09908342 -0.2663374 0.49520183 -0.08046913 -0.27847862 0.4860404
        -9.408323 -1.0351644 3.2604694 -9.733696 -1.0630342 3.342985
        -10.068899 -1.0923373 3.4258714 -10.414275 -1.123243 3.50888
        -10.770217 -1.1559451 3.5917313 -11.137169 -1.1906643 3.6741142
        -11.515643 -1.2276523 3.7556777 -11.906219 -1.2671946 3.8360264
        -12.309564 -1.3096156 3.9147136 -12.726424 -1.3552827 3.9912302
        -13.157651 -1.4046112 4.0649967 -13.604196 -1.4580705 4.1353493
        -14.067118 -1.5161899 4.201527 -14.547593 -1.5795667 4.262657
        -15.046912 -1.6488732 4.317739 -15.566477 -1.724867 4.3656273
        -16.1078 -1.8084008 4.405016 -16.672495 -1.9004347 4.4344215
        -17.26227 -2.0020516 4.4521694 -17.878904 -2.114473 4.456382
        -18.524242 -2.2390816 4.4449673 -19.20017 -2.3774452 4.4156175
        -19.908592 -2.5313492 4.365797 -20.651432 -2.702835 4.2927437
        -21.430588 -2.8942468 4.1934576 -22.247927 -3.1082954 4.064699
        -23.105247 -3.348125 3.9029593 -24.004221 -3.6174028 3.70444
        -24.946333 -3.920426 3.4650276 -25.932747 -4.262245 3.1802688
        -26.964167 -4.6488147 2.8453758 -28.040613 -5.087171 2.4552522
        -29.161184 -5.585631 2.004582 -30.323778 -6.1540284 1.4879575
        -31.524763 -6.803955 0.9000374 -32.758587 -7.5489817 0.23570013
        -34.017273 -8.404801 -0.5098395 -35.289627 -9.389129 -1.3409771
        -36.560036 -10.52121 -2.261651 -37.80668 -11.820588 -3.2750576
        -38.9991 -13.304772 -4.382745 -40.095463 -14.985394 -5.582467
        -41.040363 -16.862553 -6.8641567 -41.764908 -18.917511 -8.20364
        -42.1913 -21.10458 -9.554663 -42.24417 -23.344215 -10.841036
        -41.869244 -25.520485 -11.952335 -41.05747 -27.486738 -12.747364
        -39.867683 -29.081718 -13.068345 -38.438866 -30.155636 -12.7656
        -36.983074 -30.599945 -11.726768 -35.75673 -30.371317 -9.900714
        -3.1084356 -2.561617 0.09906292 -0.18412113 -0.09704971 0.7336674
        -0.19867706 -0.13365364 0.678874 -0.19713306 -0.17044353 0.6269579
        -0.1834631 -0.20389175 0.5820565 -0.16231251 -0.2319994 0.5461612
        -0.13786125 -0.25417805 0.51941395 -0.11327553 -0.27075386 0.5008271
        -0.09055519 -0.28257322 0.48886895 -9.445513 -0.94723964 3.2606423
        -9.772677 -0.97205794 3.3421502 -10.10985 -0.9981711 3.4239316
        -10.457397 -1.0257314 3.505734 -10.815735 -1.0549135 3.5872753
        -11.185344 -1.0859159 3.6682398 -11.566766 -1.1189657 3.7482743
        -11.960621 -1.1543205 3.8269782 -12.367616 -1.1922725 3.9038994
        -12.788548 -1.2331538 3.9785225 -13.224321 -1.2773402 4.050259
        -13.675948 -1.3252566 4.118435 -14.144556 -1.3773836 4.182274
        -14.631397 -1.4342642 4.240886 -15.137846 -1.4965117 4.2932477
        -15.665402 -1.564818 4.338184 -16.215689 -1.6399655 4.374352
        -16.790443 -1.7228382 4.4002233 -17.391508 -1.8144363 4.414066
        -18.02083 -1.9158947 4.4139323 -18.680435 -2.0285034 4.3976464
        -19.37242 -2.1537342 4.3627915 -20.09895 -2.2932744 4.306703
        -20.862236 -2.4490669 4.226457 -21.664528 -2.6233594 4.118851
        -22.508114 -2.8187754 3.9803915 -23.395288 -3.0383832 3.8072479
        -24.32833 -3.2858005 3.5952146 -25.309435 -3.5653124 3.3396578
        -26.340635 -3.8820176 3.03546 -27.423668 -4.2420115 2.676979
        -28.559788 -4.652603 2.2580276 -29.749578 -5.1225886 1.7718723
        -30.99268 -5.662563 1.2112631 -32.287487 -6.285287 0.5684397
        -33.63075 -7.006068 -0.16491961 -35.0169 -7.8430877 -0.99784017
        -36.43701 -8.817549 -1.9403023 -37.877026 -9.953402 -3.0034788
        -39.315018 -11.276307 -4.1996098 -40.717354 -12.811321 -5.5409684
        -42.034035 -14.578689 -7.0369205 -43.194283 -16.587194 -8.688058
        -44.104782 -18.824955 -10.476698 -44.65374 -21.248257 -12.354116
        -44.724632 -23.77095 -14.227098 -44.22181 -26.258318 -15.948709
        -43.10579 -28.531471 -17.320595 -41.429478 -30.386688 -18.112808
        -39.360374 -31.62989 -18.101974 -37.173656 -32.11873 -17.119385
        -35.210426 -31.797556 -15.091567 -33.811737 -30.71068 -12.055876
        -0.2202692 -0.10458755 0.814847 -0.23722076 -0.14298248 0.7411041
        -0.2334795 -0.18114948 0.6716347 -0.21473789 -0.21510983 0.61221075
        -0.18731308 -0.24287128 0.5653076 -0.15666771 -0.26401138 0.5308652
        -0.12668419 -0.27916765 0.5072448 -0.09966755 -0.2894435 0.49219656
        -9.478281 -0.8566159 3.260909 -9.807035 -0.8781879 3.341546
        -10.145953 -0.90089965 3.4223716 -10.495424 -0.9248854 3.5031312
        -10.855889 -0.95029825 3.5835392 -11.227853 -0.9773131 3.6632786
        -11.611888 -1.0061294 3.7419903 -12.008649 -1.0369741 3.8192723
        -12.418881 -1.0701045 3.8946662 -12.843427 -1.1058134 3.9676507
        -13.283235 -1.1444325 4.03763 -13.739373 -1.1863376 4.103919
        -14.213033 -1.2319542 4.16573 -14.705533 -1.2817641 4.222155
        -15.218328 -1.3363125 4.27215 -15.753008 -1.3962166 4.314513
        -16.31129 -1.4621754 4.347868 -16.895035 -1.534982 4.3706427
        -17.506212 -1.6155367 4.381055 -18.146917 -1.7048657 4.377091
        -18.819353 -1.8041402 4.356495 -19.52583 -1.9147046 4.3167515
        -20.268745 -2.0381074 4.255073 -21.050606 -2.176144 4.168381
        -21.874004 -2.330905 4.0532823 -22.741653 -2.5048506 3.9060388
        -23.656347 -2.70088 3.722508 -24.620985 -2.9224424 3.498086
        -25.638514 -3.1736631 3.2276232 -26.71188 -3.459505 2.9053392
        -27.843935 -3.7859712 2.524727 -29.037323 -4.16036 2.078466
        -30.294296 -4.5915804 1.5583339 -31.616549 -5.0905523 0.95509654
        -33.00496 -5.6706686 0.25832266 -34.459175 -6.3483315 -0.54392666
        -35.97691 -7.143485 -1.4656072 -37.552605 -8.080021 -2.5233593
        -39.175167 -9.185834 -3.7372303 -40.824203 -10.492106 -5.1309576
        -42.464516 -12.031218 -6.7309895 -44.039093 -13.83252 -8.562909
        -45.461723 -15.915056 -10.643623 -46.612106 -18.276606 -12.967877
        -47.33824 -20.879602 -15.489218 -47.47187 -23.635933 -18.098083
        -46.861763 -26.396257 -20.604452 -45.423824 -28.95151 -22.736368
        -43.196545 -31.054375 -24.165823 -40.379223 -32.46294 -24.565998
        -37.327423 -32.9971 -23.68756 -34.49397 -32.587265 -21.425655
        -32.330944 -31.293385 -17.846455 -31.190788 -29.284702 -13.159309
        -0.27530003 -0.17464447 0.80956745 -0.26875114 -0.2095375 0.7199087
        -0.24422932 -0.23977661 0.6441269 -0.21003532 -0.2635479 0.585186
        -0.17298508 -0.28075886 0.54254866 -0.13767815 -0.2922926 0.5137484
        -0.10659885 -0.29943895 0.4956274 -9.506393 -0.7637559 3.261289
        -9.836517 -0.7819165 3.341192 -10.176942 -0.8010477 3.4212127
        -10.528072 -0.82126373 3.5010934 -10.890371 -0.8426952 3.5805476
        -11.264365 -0.865491 3.6592538 -11.650655 -0.88982093 3.7368522
        -12.049923 -0.91587865 3.8129356 -12.462949 -0.9438839 3.8870423
        -12.890611 -0.97408664 3.9586453 -13.333903 -1.0067705 4.027142
        -13.79394 -1.0422574 4.091838 -14.271965 -1.0809121 4.1519346
        -14.769363 -1.1231486 4.2065096 -15.287654 -1.169436 4.2544994
        -15.828506 -1.2203069 4.294678 -16.393732 -1.2763661 4.3256397
        -16.985285 -1.3383012 4.345775 -17.605267 -1.4068961 4.353255
        -18.255901 -1.4830465 4.3460073 -18.939558 -1.5677805 4.3217034
        -19.658731 -1.6622818 4.27774 -20.416056 -1.7679219 4.2112174
        -21.214298 -1.8862991 4.1189175 -22.056393 -2.019286 3.9972677
        -22.945438 -2.1691 3.8423054 -23.884733 -2.3383732 3.6495986
        -24.87777 -2.5302615 3.4141665 -25.928246 -2.7485704 3.1303735
        -27.040024 -2.9979208 2.7917967 -28.217113 -3.2839613 2.3910885
        -29.463581 -3.6136365 1.9198115 -30.783484 -3.9955375 1.3682443
        -32.180756 -4.440339 0.72511697 -33.65905 -4.9613485 -0.022798479
        -35.2214 -5.575149 -0.89131314 -36.869473 -6.302308 -1.8997684
        -38.602104 -7.1680355 -3.0722759 -40.412518 -8.202576 -4.439093
        -42.283573 -9.440905 -6.0375576 -44.18058 -10.921124 -7.9115257
        -46.041523 -12.680523 -10.107435 -47.765877 -14.748182 -12.664602
        -49.205563 -17.13311 -15.597447 -50.163864 -19.807533 -18.868444
        -50.411247 -22.687595 -22.35495 -49.72656 -25.61735 -25.819414
        -47.964985 -28.365917 -28.900131 -45.139404 -30.64943 -31.142767
        -41.48207 -32.182583 -32.082325 -37.44596 -32.74958 -31.359598
        -33.62403 -32.267555 -28.827065 -30.60797 -30.811928 -24.591902
        -28.845917 -28.589926 -18.97222 -1.5523071 -1.3659534 0.290493
        -0.29734707 -0.2601986 0.76516914 -0.26716995 -0.28060055 0.6732292
        -0.22666359 -0.295475 0.6027832 -0.183959 -0.30502892 0.5526428
        -0.14419365 -0.31029797 0.51926994 -0.10993767 -0.31250095 0.4985807
        -9.529647 -0.66908324 3.2617793 -9.860911 -0.6836961 3.3410854
        -10.202588 -0.6990985 3.4204516 -10.555097 -0.71538347 3.4996183
        -10.918919 -0.73265725 3.5782962 -11.2946 -0.7510413 3.6561627
        -11.682763 -0.77067435 3.732855 -12.084116 -0.79171395 3.8079631
        -12.499464 -0.81434 3.8810225 -12.929719 -0.8387564 3.951501
        -13.375911 -0.86519545 4.0187893 -13.839192 -0.8939207 4.0821877
        -14.320856 -0.92523146 4.140886 -14.822333 -0.9594677 4.1939497
        -15.345209 -0.9970157 4.240299 -15.891216 -1.0383145 4.2786894
        -16.462246 -1.0838639 4.3076878 -17.060339 -1.1342337 4.3256526
        -17.687698 -1.1900756 4.330715 -18.346674 -1.2521361 4.3207526
        -19.039774 -1.3212755 4.293377 -19.76966 -1.3984876 4.245905
        -20.539165 -1.4849298 4.17534 -21.351307 -1.5819563 4.078342
        -22.209309 -1.6911616 3.9511836 -23.11664 -1.8144462 3.7897015
        -24.077045 -1.9540774 3.5892043 -25.094574 -2.1127913 3.3443763
        -26.173622 -2.2939117 3.049139 -27.31893 -2.5015066 2.696486
        -28.535606 -2.74059 2.2782917 -29.829119 -3.0173874 1.7850721
        -31.205309 -3.339682 1.2056808 -32.670383 -3.7172594 0.5268816
        -34.230865 -4.1624784 -0.26730102 -35.89337 -4.6909657 -1.1965597
        -37.663925 -5.322422 -2.2857342 -39.546394 -6.081454 -3.5667164
        -41.539333 -6.998233 -5.080637 -43.630405 -8.108634 -6.879713
        -45.787453 -9.453167 -9.027404 -47.94589 -11.073711 -11.594564
        -49.993362 -13.006672 -14.648238 -51.755295 -15.271135 -18.229427
        -52.988853 -17.85109 -22.317188 -53.39734 -20.67339 -26.781513
        -52.678352 -23.587132 -31.336666 -50.611786 -26.356089 -35.51953
        -47.17277 -28.6786 -38.72462 -42.6247 -30.24348 -40.315678
        -37.530933 -30.811817 -39.79462 -32.648518 -30.292255 -36.9599
        -28.732704 -28.771519 -31.97203 -26.34029 -26.482698 -25.287846
        -25.720428 -23.72874 -17.500015 -0.31180382 -0.33436584 0.79745483
        -0.27750015 -0.3376932 0.69301414 -0.23263359 -0.3381424 0.6140833
        -0.18631935 -0.33611107 0.55875206 -0.14402199 -0.33244848 0.52249336
        -0.10825539 -0.3279891 0.50035834 -9.54788 -0.5729919 3.2623665
        -9.88004 -0.58394885 3.3412127 -10.222702 -0.59550446 3.4200737
        -10.576297 -0.6077297 3.4986892 -10.941318 -0.62070525 3.5767684
        -11.318328 -0.6345239 3.6539867 -11.707966 -0.6492913 3.7299795
        -12.110961 -0.6651276 3.8043346 -12.528138 -0.68217015 3.8765845
        -12.960438 -0.70057476 3.9461935 -13.408915 -0.7205192 4.0125484
        -13.874756 -0.74220514 4.074942 -14.359289 -0.76586217 4.132557
        -14.863991 -0.7917513 4.184449 -15.390491 -0.82016975 4.229526
        -15.940576 -0.85145557 4.2665257 -16.5162 -0.8859949 4.293995
        -17.119478 -0.92422867 4.3102665 -17.752697 -0.9666623 4.3134394
        -18.418303 -1.013877 4.3013506 -19.118921 -1.0665435 4.27156
        -19.857357 -1.1254411 4.221323 -20.63661 -1.1914786 4.147563
        -21.459894 -1.265723 4.046838 -22.330694 -1.3494432 3.9152954
        -23.252785 -1.4441475 3.748602 -24.230291 -1.5516509 3.5418525
        -25.26775 -1.6741545 3.2894478 -26.370157 -1.8143469 2.9849339
        -27.543028 -1.9755392 2.6208067 -28.792448 -2.1618414 2.1882703
        -30.125149 -2.378395 1.6769266 -31.54859 -2.6316817 1.0743711
        -33.071087 -2.9299278 0.36560678 -34.701862 -3.2836273 -0.467835
        -36.450985 -3.706201 -1.4492191 -38.328743 -4.214784 -2.6085389
        -40.34414 -4.8310914 -3.9850855 -42.501427 -5.5822067 -5.630535
        -44.7939 -6.501013 -7.6118307 -47.19342 -7.625657 -10.012342
        -49.635223 -8.997132 -12.928501 -51.998276 -10.653607 -16.457634
        -54.085056 -12.619856 -20.67171 -55.60946 -14.890569 -25.572557
        -56.207993 -17.408308 -31.029558 -55.4933 -20.041176 -36.713184
        -53.16204 -22.571568 -42.05655 -49.142403 -24.71196 -46.290974
        -43.724068 -26.158844 -48.589256 -37.58439 -26.676212 -48.29545
        -31.654959 -26.174353 -45.146595 -26.864773 -24.741825 -39.36553
        -23.88251 -22.611801 -31.567516 -22.980495 -20.082176 -22.536608
        -0.30418396 -0.4270754 0.80508995 -0.26905632 -0.40683937 0.6961727
        -0.22353745 -0.38816738 0.614789 -0.17712021 -0.37141132 0.55849075
        -0.13531494 -0.35684633 0.522161 -0.10041714 -0.34457397 0.5003047
        -9.560964 -0.47585493 3.2630334 -9.89377 -0.4830753 3.3415549
        -10.237141 -0.4906962 3.4200602 -10.591517 -0.49876538 3.4982865
        -10.957403 -0.50733775 3.5759425 -11.33537 -0.5164757 3.6527028
        -11.726071 -0.5262507 3.7282012 -12.130251 -0.5367445 3.802024
        -12.548749 -0.5480498 3.8737001 -12.982521 -0.5602727 3.9426937
        -13.432649 -0.5735338 4.0083866 -13.900339 -0.58797026 4.0700674
        -14.386948 -0.6037386 4.126914 -14.893979 -0.621017 4.1779733
        -15.4231 -0.64000845 4.222144 -15.97614 -0.6609447 4.2581525
        -16.555096 -0.68409073 4.2845297 -17.162138 -0.7097497 4.2995906
        -17.799612 -0.7382704 4.3014083 -18.470045 -0.7700546 4.2877917
        -19.176144 -0.8055676 4.2562623 -19.920822 -0.8453514 4.204028
        -20.707203 -0.89004093 4.127954 -21.53866 -0.9403826 4.024522
        -22.41887 -0.9972698 3.8897824 -23.351843 -1.0617669 3.7192779
        -24.342001 -1.1351603 3.5079365 -25.394258 -1.2190166 3.2499437
        -26.514086 -1.315258 2.938559 -27.707602 -1.4262638 2.565892
        -28.981676 -1.5550013 2.122622 -30.344051 -1.7052046 1.5976334
        -31.803513 -1.8816084 0.97752315 -33.370094 -2.0902596 0.24588078
        -35.055275 -2.3389285 -0.6177855 -36.872017 -2.6376293 -1.6396782
        -38.834293 -2.9992547 -2.8540573 -40.95559 -3.44031 -4.3064423
        -43.245365 -3.9816194 -6.0575023 -45.70229 -4.6488266 -8.186949
        -48.302734 -5.4722176 -10.795753 -50.98323 -6.4851637 -14.003477
        -53.617287 -7.7200613 -17.93569 -55.989758 -9.200287 -22.694574
        -57.778774 -10.927029 -28.306461 -58.562767 -12.86101 -34.64537
        -57.877396 -14.902932 -41.34697 -55.34053 -16.881859 -47.751953
        -50.83233 -18.56572 -52.939354 -44.66182 -19.705173 -55.898945
        -37.609344 -20.104836 -55.821136 -30.767866 -19.691475 -52.383404
        -25.226646 -18.540783 -45.87075 -21.754625 -16.848251 -37.05364
        -20.640108 -14.860174 -26.899586 -2.4788113 -1.789813 -0.9782276
        -0.2376442 -0.47870827 0.6770096 -0.19659424 -0.4389863 0.60173416
        -0.15468979 -0.40645075 0.55021 -0.11711311 -0.38053107 0.51740885
        -0.08595371 -0.3603227 0.49802828 -9.5688095 -0.37803137 3.2637653
        -9.902004 -0.38146168 3.3420975 -10.245802 -0.3850894 3.420394
        -10.60065 -0.38893887 3.4983923 -10.967056 -0.39303797 3.5758002
        -11.345602 -0.3974185 3.6522908 -11.736946 -0.40211698 3.727498
        -12.141838 -0.40717512 3.8010066 -12.561134 -0.41264063 3.8723454
        -12.995799 -0.41856784 3.940975 -13.446923 -0.425019 4.0062757
        -13.915732 -0.43206483 4.0675344 -14.403599 -0.4397864 4.1239243
        -14.912045 -0.4482762 4.174489 -15.442757 -0.4576399 4.2181196
        -15.99759 -0.4679985 4.253536 -16.578571 -0.47949094 4.27926
        -17.187906 -0.49227664 4.2935944 -17.827978 -0.50653994 4.294597
        -18.501356 -0.5224936 4.2800584 -19.210812 -0.54038554 4.247477
        -19.959314 -0.56050557 4.194031 -20.750076 -0.5831945 4.116547
        -21.586569 -0.60885435 4.011461 -22.472588 -0.6379708 3.8747606
        -23.412298 -0.67112184 3.701908 -24.410318 -0.70901096 3.487729
        -25.471802 -0.75249714 3.2262678 -26.602531 -0.80263877 2.9105992
        -27.809025 -0.860751 2.5325832 -29.09867 -0.9284794 2.0825567
        -30.47988 -1.0079015 1.5489341 -31.962326 -1.1016607 0.91764784
        -33.557205 -1.2131412 0.17135108 -35.277527 -1.3467066 -0.71181136
        -37.13824 -1.5079935 -1.7600188 -39.155876 -1.7042859 -3.010443
        -41.34707 -1.9449362 -4.5128756 -43.72501 -2.2417998 -6.3342175
        -46.29238 -2.6095462 -8.563116 -49.029076 -3.0656238 -11.313013
        -51.87323 -3.6294436 -14.720114 -54.695488 -4.32014 -18.930695
        -57.269455 -5.152061 -24.06973 -59.24904 -6.127201 -30.183048
        -60.17199 -7.224489 -37.150513 -59.518517 -8.387965 -44.58506
        -56.848114 -9.519096 -51.761395 -52.00363 -10.482065 -57.64622
        -45.305965 -11.129597 -61.091667 -37.61007 -11.346725 -61.171764
        -30.127531 -11.092592 -57.51939 -24.064827 -10.413608 -50.468155
        -20.26248 -9.427276 -40.907356 -19.017073 -8.280313 -29.942451
        -10.846796 -4.078367 -9.574839 -0.18320274 -0.5402651 0.6342449
        -0.15212631 -0.481915 0.574461 -0.119524 -0.43561625 0.53380394
        -0.08998108 -0.39993978 0.5082884 -0.06539917 -0.3730142 0.49358368
        -9.5713625 -0.27987197 3.2645524 -9.904686 -0.2794857 3.3428292
        -10.248626 -0.27909136 3.4210646 -10.60363 -0.2786894 3.4989946
        -10.970209 -0.27828047 3.5763283 -11.348948 -0.27786535 3.6527374
        -11.740505 -0.2774452 3.727856 -12.145638 -0.27702135 3.801268
        -12.565201 -0.27659553 3.872502 -13.000165 -0.27617007 3.9410183
        -13.451626 -0.27574766 4.006197 -13.920814 -0.27533177 4.0673223
        -14.409105 -0.27492678 4.1235666 -14.918031 -0.27453795 4.1739726
        -15.449286 -0.2741719 4.2174296 -16.004734 -0.27383682 4.252653
        -16.58641 -0.27354282 4.2781625 -17.196535 -0.27330235 4.292256
        -17.837505 -0.2731309 4.292986 -18.51191 -0.2730476 4.2781363
        -19.222534 -0.2730761 4.245196 -19.972383 -0.2732458 4.191332
        -20.76469 -0.27359346 4.113358 -21.60297 -0.27416232 4.0076904
        -22.491066 -0.27501294 3.8702955 -23.433203 -0.27621448 3.6966023
        -24.434072 -0.27785587 3.4813976 -25.498924 -0.28004837 3.2186708
        -26.633667 -0.28293216 2.9014244 -27.844975 -0.2866831 2.5214186
        -29.140444 -0.29152343 2.068855 -30.52876 -0.29773226 1.531958
        -32.019947 -0.30566236 0.89639664 -33.62567 -0.31575656 0.14443964
        -35.359566 -0.32857108 -0.7463179 -37.237377 -0.34479842 -1.8048592
        -39.276672 -0.3652941 -3.0695417 -41.495365 -0.39110118 -4.591899
        -43.908165 -0.42345142 -6.4413686 -46.519386 -0.46375206 -8.710243
        -49.310402 -0.51349616 -11.517061 -52.220047 -0.5740922 -15.004854
        -55.11783 -0.6465186 -19.328384 -57.772873 -0.7308928 -24.622047
        -59.829308 -0.825819 -30.939772 -60.808342 -0.92768776 -38.16394
        -60.16749 -1.0299828 -45.898117 -57.4424 -1.1228454 -53.38966
        -52.460747 -1.1936811 -59.558414 -45.54854 -1.2298195 -63.19925
        -37.59159 -1.223588 -63.338085 -29.851185 -1.1768615 -59.590477
        -23.582548 -1.095171 -52.31196 -19.654211 -0.99053144 -42.44259
        -18.364468 -0.8774729 -31.145695 -13.276255 -0.7344222 -13.00226
        -0.11113739 -0.57851624 0.5728359 -0.094306946 -0.5085445 0.5361004
        -0.074747086 -0.45360708 0.51117516 -0.05616188 -0.41179806 0.49588585
        -0.04031086 -0.38066262 0.48754406 -9.568606 -0.1817236 3.2653906
        -9.901796 -0.17752121 3.3437467 -10.24559 -0.1731052 3.422067
        -10.600434 -0.16845219 3.5000894 -10.966838 -0.16353564 3.5775216
        -11.345381 -0.15832525 3.654037 -11.736723 -0.15278675 3.7292686
        -12.141617 -0.14688106 3.8028018 -12.560915 -0.14056416 3.8741646
        -12.995585 -0.13378592 3.9428177 -13.446717 -0.12648979 4.008142
        -13.915539 -0.11861175 4.0694222 -14.403421 -0.11007931 4.1258335
        -14.911889 -0.10081075 4.1764164 -15.442632 -0.090713255 4.2200646
        -15.997506 -0.079682045 4.255494 -16.578539 -0.06759827 4.2812285
        -17.18794 -0.05432704 4.2955675 -17.828098 -0.039714836 4.296568
        -18.501587 -0.02358647 4.282019 -19.211182 -0.005740812 4.249416
        -19.959866 0.014053755 4.1959333 -20.750853 0.036066346 4.118394
        -21.587635 0.06061279 4.013227 -22.474022 0.08806078 3.8764143
        -23.414204 0.11885187 3.7034042 -24.412827 0.15351553 3.489009
        -25.47508 0.19269255 3.2272522 -26.6068 0.23716879 2.91118
        -27.81457 0.28791523 2.5326123 -29.105858 0.34614685 2.0818298
        -30.489193 0.41339976 1.5471642 -31.974392 0.49163628 0.9144382
        -33.572845 0.58339036 0.16613752 -35.2978 0.69196063 -0.71982825
        -37.164516 0.82166743 -1.7719775 -39.189903 0.97817564 -3.0279741
        -41.391052 1.1688907 -4.538306 -43.781662 1.4033786 -6.370866
        -46.364895 1.6937473 -8.615665 -49.121002 2.0547736 -11.387984
        -51.98809 2.503449 -14.826387 -54.835945 3.057382 -19.079868
        -57.436043 3.7311177 -24.276154 -59.43831 4.5297036 -30.46295
        -60.3744 5.439177 -37.519585 -59.717014 6.4158106 -45.05414
        -57.01869 7.378992 -52.330517 -52.119217 8.21526 -58.299084
        -45.343445 8.799303 -61.793644 -37.55814 9.028959 -61.87487
        -29.99282 8.861167 -58.17349 -23.870445 8.331221 -51.033733
        -20.038382 7.5355506 -41.363678 -18.791222 6.595408 -30.288273
        -10.652271 2.688499 -9.800039 -0.031461716 -0.58529854 0.5033188
        -0.030498505 -0.51360106 0.49292183 -0.025541306 -0.45711803 0.4858961
        -0.019229889 -0.41408408 0.4821539 -0.013095856 -0.38204372 0.480937
        -9.560558 -0.08393307 3.266283 -9.893354 -0.075941876 3.344852
        -10.236717 -0.06753397 3.4234047 -10.591085 -0.05866245 3.5016794
        -10.956965 -0.04927382 3.579384 -11.334929 -0.039307058 3.6561935
        -11.725628 -0.028692843 3.7317407 -12.129807 -0.017352268 3.805612
        -12.548309 -0.005195846 3.877337 -12.982093 0.00787806 3.9463778
        -13.432235 0.021984685 4.012117 -13.899948 0.03725465 4.073842
        -14.38659 0.053836048 4.1307297 -14.893668 0.07189676 4.1818275
        -15.422848 0.09162704 4.2260323 -15.975965 0.11324305 4.2620683
        -16.555023 0.13699014 4.2884655 -17.162197 0.16314788 4.303536
        -17.79984 0.1920355 4.305351 -18.470491 0.22401825 4.291714
        -19.176865 0.2595165 4.260143 -19.921894 0.29901683 4.2078385
        -20.708721 0.34308487 4.1316557 -21.540745 0.39238557 4.0280676
        -22.421677 0.44770014 3.8931072 -23.355572 0.5099639 3.7222948
        -24.346907 0.5802999 3.510532 -25.400667 0.6600703 3.2519627
        -26.522425 0.7509436 2.939792 -27.71842 0.8549819 2.5660512
        -28.995686 0.97475773 2.1213121 -30.362177 1.1135143 1.5943068
        -31.826956 1.2753751 0.97141165 -33.400414 1.465635 0.23590595
        -35.094486 1.691136 -0.6331499 -36.92271 1.9607652 -1.662594
        -38.899754 2.2860656 -2.8876035 -41.03993 2.6819577 -4.354999
        -43.353584 3.1674838 -6.127265 -45.84025 3.766387 -8.286614
        -48.476803 4.507139 -10.937332 -51.199554 5.421724 -14.203165
        -53.880314 6.542144 -18.214458 -56.299835 7.893021 -23.078064
        -58.128746 9.4791565 -28.82319 -58.934464 11.267921 -35.322395
        -58.239243 13.16996 -42.202114 -55.648922 15.027439 -48.78365
        -51.038795 16.623308 -54.11738 -44.725704 17.721859 -57.161625
        -37.511993 18.134998 -57.083992 -30.521687 17.788076 -53.558704
        -24.87173 16.74854 -46.889164 -21.34421 15.197893 -37.878407
        -20.22464 13.365764 -27.527609 -2.1414757 0.60990906 -1.3487568
        0.04409218 -0.5604496 0.43833542 0.030672073 -0.49684763 0.45243168
        0.022022247 -0.44593716 0.46221542 0.016695023 -0.40663147 0.46939564
        0.01349926 -0.37704062 0.47494078 -9.547272 0.013148997 3.2672372
        -9.879418 0.024874644 3.3461542 -10.222067 0.03721518 3.425087
        -10.57565 0.05024055 3.5037751 -10.940661 0.06403055 3.581927
        -11.317665 0.078676224 3.6592185 -11.7073 0.094281174 3.7352848
        -12.110296 0.11096319 3.8097134 -12.52748 0.12885608 3.8820353
        -12.959793 0.14811179 3.9517155 -13.408292 0.16890264 4.0181394
        -13.874166 0.1914241 4.0806 -14.358748 0.21589771 4.1382775
        -14.863516 0.24257477 4.1902275 -15.390102 0.27174005 4.235356
        -15.940302 0.30371705 4.2723975 -16.516075 0.33887333 4.299897
        -17.119547 0.3776273 4.316186 -17.753012 0.4204567 4.3193555
        -18.418934 0.46790808 4.3072395 -19.119955 0.52061087 4.2773895
        -19.8589 0.5792918 4.2270517 -20.6388 0.64479643 4.1531367
        -21.462906 0.71811604 4.052187 -22.334753 0.8004169 3.9203253
        -23.258175 0.8930901 3.7531896 -24.23738 0.9978036 3.5458324
        -25.277004 1.1165762 3.2925985 -26.382183 1.2518716 2.986956
        -27.558601 1.4067249 2.6212926 -28.812576 1.5849068 2.186658