# vtk DataFile Version 3.0
SM polar seed points transformed to GSW coordinates
ASCII
DATASET POLYDATA
POINTS      288 float
       0.948568       0.000000       1.161989
       0.923343       0.194114       1.166086
       0.849387       0.375000       1.178099
       0.731740       0.530330       1.197208
       0.578419       0.649519       1.222111
       0.399873       0.724444       1.251112
       0.208270       0.750000       1.282234
       0.016667       0.724444       1.313356
      -0.161879       0.649519       1.342356
      -0.315200       0.530330       1.367260
      -0.432847       0.375000       1.386369
      -0.506803       0.194114       1.398381
      -0.532028      -0.000000       1.402479
      -0.506803      -0.194114       1.398381
      -0.432847      -0.375000       1.386369
      -0.315200      -0.530330       1.367260
      -0.161879      -0.649519       1.342356
       0.016667      -0.724444       1.313356
       0.208270      -0.750000       1.282234
       0.399873      -0.724444       1.251112
       0.578419      -0.649519       1.222111
       0.731740      -0.530330       1.197208
       0.849387      -0.375000       1.178099
       0.923343      -0.194114       1.166086
       0.843685       0.000000       1.240240
       0.822363       0.164072       1.243704
       0.759853       0.316964       1.253857
       0.660413       0.448254       1.270009
       0.530821       0.548997       1.291058
       0.379908       0.612327       1.315571
       0.217958       0.633927       1.341876
       0.056008       0.612327       1.368181
      -0.094906       0.548997       1.392693
      -0.224498       0.448254       1.413743
      -0.323938       0.316964       1.429895
      -0.386448       0.164073       1.440048
      -0.407769      -0.000000       1.443511
      -0.386448      -0.164073       1.440048
      -0.323938      -0.316964       1.429895
      -0.224498      -0.448254       1.413743
      -0.094906      -0.548997       1.392693
       0.056008      -0.612327       1.368181
       0.217958      -0.633927       1.341876
       0.379908      -0.612327       1.315571
       0.530821      -0.548997       1.291058
       0.660413      -0.448254       1.270009
       0.759853      -0.316964       1.253857
       0.822363      -0.164073       1.243704
       0.732380       0.000000       1.309053
       0.715125       0.132782       1.311856
       0.664536       0.256515       1.320073
       0.584061       0.362767       1.333144
       0.479183       0.444297       1.350179
       0.357051       0.495549       1.370017
       0.225986       0.513030       1.391305
       0.094922       0.495549       1.412594
      -0.027211       0.444297       1.432431
      -0.132088       0.362767       1.449466
      -0.212563       0.256515       1.462538
      -0.263152       0.132782       1.470755
      -0.280407      -0.000000       1.473558
      -0.263152      -0.132782       1.470755
      -0.212563      -0.256515       1.462538
      -0.132088      -0.362767       1.449466
      -0.027210      -0.444297       1.432431
       0.094922      -0.495549       1.412594
       0.225986      -0.513030       1.391305
       0.357051      -0.495549       1.370017
       0.479183      -0.444297       1.350179
       0.584061      -0.362767       1.333144
       0.664536      -0.256515       1.320073
       0.715125      -0.132782       1.311856
       0.615502       0.000000       1.367903
       0.602444       0.100481       1.370024
       0.564162       0.194114       1.376242
       0.503263       0.274519       1.386133
       0.423898       0.336216       1.399024
       0.331476       0.375000       1.414036
       0.232295       0.388229       1.430146
       0.133114       0.375000       1.446256
       0.040692       0.336216       1.461268
      -0.038673       0.274519       1.474159
      -0.099571       0.194114       1.484050
      -0.137854       0.100481       1.490268
      -0.150911      -0.000000       1.492389
      -0.137854      -0.100481       1.490268
      -0.099571      -0.194114       1.484050
      -0.038673      -0.274519       1.474159
       0.040692      -0.336216       1.461268
       0.133114      -0.375000       1.446256
       0.232295      -0.388229       1.430146
       0.331476      -0.375000       1.414036
       0.423898      -0.336216       1.399024
       0.503263      -0.274519       1.386133
       0.564162      -0.194114       1.376242
       0.602444      -0.100481       1.370024
       0.493939       0.000000       1.416342
       0.485178       0.067415       1.417765
       0.459494       0.130236       1.421937
       0.418635       0.184182       1.428573
       0.365387       0.225576       1.437222
       0.303379       0.251597       1.447294
       0.236836       0.260472       1.458102
       0.170293       0.251597       1.468911
       0.108285       0.225576       1.478983
       0.055037       0.184182       1.487632
       0.014178       0.130236       1.494268
      -0.011506       0.067415       1.498440
      -0.020267      -0.000000       1.499863
      -0.011506      -0.067415       1.498440
       0.014178      -0.130236       1.494268
       0.055037      -0.184182       1.487632
       0.108285      -0.225576       1.478983
       0.170293      -0.251597       1.468911
       0.236836      -0.260472       1.458102
       0.303379      -0.251597       1.447294
       0.365387      -0.225576       1.437222
       0.418635      -0.184182       1.428573
       0.459494      -0.130236       1.421937
       0.485178      -0.067415       1.417765
       0.368617       0.000000       1.454002
       0.364220       0.033836       1.454716
       0.351329       0.065367       1.456810
       0.330821       0.092443       1.460141
       0.304096       0.113219       1.464482
       0.272973       0.126279       1.469537
       0.239575       0.130734       1.474962
       0.206176       0.126279       1.480387
       0.175053       0.113219       1.485442
       0.148328       0.092443       1.489783
       0.127820       0.065367       1.493114
       0.114929       0.033836       1.495208
       0.110532      -0.000000       1.495922
       0.114929      -0.033836       1.495208
       0.127820      -0.065367       1.493114
       0.148328      -0.092443       1.489783
       0.175053      -0.113219       1.485442
       0.206176      -0.126279       1.480387
       0.239575      -0.130734       1.474962
       0.272973      -0.126279       1.469537
       0.304096      -0.113219       1.464482
       0.330821      -0.092443       1.460141
       0.351329      -0.065367       1.456810
       0.364220      -0.033836       1.454716
       0.532028       0.000000      -1.402479
       0.506803       0.194114      -1.398381
       0.432847       0.375000      -1.386369
       0.315200       0.530330      -1.367260
       0.161879       0.649519      -1.342356
      -0.016667       0.724444      -1.313356
      -0.208270       0.750000      -1.282234
      -0.399873       0.724444      -1.251112
      -0.578419       0.649519      -1.222111
      -0.731740       0.530330      -1.197208
      -0.849387       0.375000      -1.178099
      -0.923343       0.194114      -1.166086
      -0.948568      -0.000000      -1.161989
      -0.923343      -0.194114      -1.166086
      -0.849387      -0.375000      -1.178099
      -0.731740      -0.530330      -1.197208
      -0.578419      -0.649519      -1.222111
      -0.399873      -0.724444      -1.251112
      -0.208270      -0.750000      -1.282234
      -0.016667      -0.724444      -1.313356
       0.161879      -0.649519      -1.342356
       0.315199      -0.530330      -1.367260
       0.432847      -0.375000      -1.386369
       0.506803      -0.194114      -1.398381
       0.407769       0.000000      -1.443511
       0.386448       0.164072      -1.440048
       0.323938       0.316964      -1.429895
       0.224498       0.448254      -1.413743
       0.094906       0.548997      -1.392693
      -0.056008       0.612327      -1.368181
      -0.217958       0.633927      -1.341876
      -0.379908       0.612327      -1.315571
      -0.530821       0.548997      -1.291058
      -0.660413       0.448254      -1.270009
      -0.759853       0.316964      -1.253857
      -0.822363       0.164073      -1.243704
      -0.843685      -0.000000      -1.240240
      -0.822363      -0.164073      -1.243704
      -0.759853      -0.316964      -1.253857
      -0.660413      -0.448254      -1.270009
      -0.530821      -0.548997      -1.291058
      -0.379908      -0.612327      -1.315571
      -0.217958      -0.633927      -1.341876
      -0.056008      -0.612327      -1.368181
       0.094906      -0.548997      -1.392693
       0.224498      -0.448254      -1.413743
       0.323938      -0.316964      -1.429895
       0.386448      -0.164073      -1.440048
       0.280407       0.000000      -1.473558
       0.263152       0.132782      -1.470755
       0.212563       0.256515      -1.462538
       0.132088       0.362767      -1.449466
       0.027210       0.444297      -1.432431
      -0.094922       0.495549      -1.412594
      -0.225986       0.513030      -1.391305
      -0.357051       0.495549      -1.370017
      -0.479183       0.444297      -1.350179
      -0.584061       0.362767      -1.333144
      -0.664536       0.256515      -1.320073
      -0.715125       0.132782      -1.311856
      -0.732380      -0.000000      -1.309053
      -0.715125      -0.132782      -1.311856
      -0.664536      -0.256515      -1.320073
      -0.584061      -0.362767      -1.333144
      -0.479183      -0.444297      -1.350179
      -0.357051      -0.495549      -1.370017
      -0.225986      -0.513030      -1.391305
      -0.094922      -0.495549      -1.412594
       0.027210      -0.444297      -1.432431
       0.132088      -0.362767      -1.449466
       0.212563      -0.256515      -1.462538
       0.263152      -0.132782      -1.470755
       0.150911       0.000000      -1.492389
       0.137854       0.100481      -1.490268
       0.099571       0.194114      -1.484050
       0.038673       0.274519      -1.474159
      -0.040692       0.336216      -1.461268
      -0.133114       0.375000      -1.446256
      -0.232295       0.388229      -1.430146
      -0.331476       0.375000      -1.414036
      -0.423898       0.336216      -1.399024
      -0.503263       0.274519      -1.386133
      -0.564162       0.194114      -1.376242
      -0.602444       0.100481      -1.370024
      -0.615502      -0.000000      -1.367903
      -0.602444      -0.100481      -1.370024
      -0.564162      -0.194114      -1.376242
      -0.503263      -0.274519      -1.386133
      -0.423898      -0.336216      -1.399024
      -0.331476      -0.375000      -1.414036
      -0.232295      -0.388229      -1.430146
      -0.133114      -0.375000      -1.446256
      -0.040692      -0.336216      -1.461268
       0.038673      -0.274519      -1.474159
       0.099571      -0.194114      -1.484050
       0.137854      -0.100481      -1.490268
       0.020267       0.000000      -1.499863
       0.011506       0.067415      -1.498440
      -0.014178       0.130236      -1.494268
      -0.055037       0.184182      -1.487632
      -0.108285       0.225576      -1.478983
      -0.170293       0.251597      -1.468911
      -0.236836       0.260472      -1.458102
      -0.303379       0.251597      -1.447294
      -0.365388       0.225576      -1.437222
      -0.418635       0.184182      -1.428573
      -0.459494       0.130236      -1.421937
      -0.485178       0.067415      -1.417765
      -0.493939      -0.000000      -1.416342
      -0.485178      -0.067415      -1.417765
      -0.459494      -0.130236      -1.421937
      -0.418635      -0.184182      -1.428573
      -0.365387      -0.225576      -1.437222
      -0.303379      -0.251597      -1.447294
      -0.236836      -0.260472      -1.458102
      -0.170293      -0.251597      -1.468911
      -0.108285      -0.225576      -1.478983
      -0.055037      -0.184182      -1.487632
      -0.014178      -0.130236      -1.494268
       0.011506      -0.067415      -1.498440
      -0.110532       0.000000      -1.495922
      -0.114929       0.033836      -1.495208
      -0.127820       0.065367      -1.493114
      -0.148328       0.092443      -1.489783
      -0.175053       0.113219      -1.485442
      -0.206176       0.126279      -1.480387
      -0.239575       0.130734      -1.474962
      -0.272973       0.126279      -1.469537
      -0.304096       0.113219      -1.464482
      -0.330821       0.092443      -1.460141
      -0.351329       0.065367      -1.456810
      -0.364220       0.033836      -1.454716
      -0.368617      -0.000000      -1.454002
      -0.364220      -0.033836      -1.454716
      -0.351329      -0.065367      -1.456810
      -0.330821      -0.092443      -1.460141
      -0.304096      -0.113219      -1.464482
      -0.272973      -0.126279      -1.469537
      -0.239575      -0.130734      -1.474962
      -0.206176      -0.126279      -1.480387
      -0.175053      -0.113219      -1.485442
      -0.148328      -0.092443      -1.489783
      -0.127820      -0.065367      -1.493114
      -0.114929      -0.033836      -1.495208
VERTICES      288     576
 1        0
 1        1
 1        2
 1        3
 1        4
 1        5
 1        6
 1        7
 1        8
 1        9
 1       10
 1       11
 1       12
 1       13
 1       14
 1       15
 1       16
 1       17
 1       18
 1       19
 1       20
 1       21
 1       22
 1       23
 1       24
 1       25
 1       26
 1       27
 1       28
 1       29
 1       30
 1       31
 1       32
 1       33
 1       34
 1       35
 1       36
 1       37
 1       38
 1       39
 1       40
 1       41
 1       42
 1       43
 1       44
 1       45
 1       46
 1       47
 1       48
 1       49
 1       50
 1       51
 1       52
 1       53
 1       54
 1       55
 1       56
 1       57
 1       58
 1       59
 1       60
 1       61
 1       62
 1       63
 1       64
 1       65
 1       66
 1       67
 1       68
 1       69
 1       70
 1       71
 1       72
 1       73
 1       74
 1       75
 1       76
 1       77
 1       78
 1       79
 1       80
 1       81
 1       82
 1       83
 1       84
 1       85
 1       86
 1       87
 1       88
 1       89
 1       90
 1       91
 1       92
 1       93
 1       94
 1       95
 1       96
 1       97
 1       98
 1       99
 1      100
 1      101
 1      102
 1      103
 1      104
 1      105
 1      106
 1      107
 1      108
 1      109
 1      110
 1      111
 1      112
 1      113
 1      114
 1      115
 1      116
 1      117
 1      118
 1      119
 1      120
 1      121
 1      122
 1      123
 1      124
 1      125
 1      126
 1      127
 1      128
 1      129
 1      130
 1      131
 1      132
 1      133
 1      134
 1      135
 1      136
 1      137
 1      138
 1      139
 1      140
 1      141
 1      142
 1      143
 1      144
 1      145
 1      146
 1      147
 1      148
 1      149
 1      150
 1      151
 1      152
 1      153
 1      154
 1      155
 1      156
 1      157
 1      158
 1      159
 1      160
 1      161
 1      162
 1      163
 1      164
 1      165
 1      166
 1      167
 1      168
 1      169
 1      170
 1      171
 1      172
 1      173
 1      174
 1      175
 1      176
 1      177
 1      178
 1      179
 1      180
 1      181
 1      182
 1      183
 1      184
 1      185
 1      186
 1      187
 1      188
 1      189
 1      190
 1      191
 1      192
 1      193
 1      194
 1      195
 1      196
 1      197
 1      198
 1      199
 1      200
 1      201
 1      202
 1      203
 1      204
 1      205
 1      206
 1      207
 1      208
 1      209
 1      210
 1      211
 1      212
 1      213
 1      214
 1      215
 1      216
 1      217
 1      218
 1      219
 1      220
 1      221
 1      222
 1      223
 1      224
 1      225
 1      226
 1      227
 1      228
 1      229
 1      230
 1      231
 1      232
 1      233
 1      234
 1      235
 1      236
 1      237
 1      238
 1      239
 1      240
 1      241
 1      242
 1      243
 1      244
 1      245
 1      246
 1      247
 1      248
 1      249
 1      250
 1      251
 1      252
 1      253
 1      254
 1      255
 1      256
 1      257
 1      258
 1      259
 1      260
 1      261
 1      262
 1      263
 1      264
 1      265
 1      266
 1      267
 1      268
 1      269
 1      270
 1      271
 1      272
 1      273
 1      274
 1      275
 1      276
 1      277
 1      278
 1      279
 1      280
 1      281
 1      282
 1      283
 1      284
 1      285
 1      286
 1      287
POINT_DATA      288
SCALARS hemisphere int 1
LOOKUP_TABLE default
 1
 1
 1
 1
 1
 1
 1
 1
 1
 1
 1
 1
 1
 1
 1
 1
 1
 1
 1
 1
 1
 1
 1
 1
 1
 1
 1
 1
 1
 1
 1
 1
 1
 1
 1
 1
 1
 1
 1
 1
 1
 1
 1
 1
 1
 1
 1
 1
 1
 1
 1
 1
 1
 1
 1
 1
 1
 1
 1
 1
 1
 1
 1
 1
 1
 1
 1
 1
 1
 1
 1
 1
 1
 1
 1
 1
 1
 1
 1
 1
 1
 1
 1
 1
 1
 1
 1
 1
 1
 1
 1
 1
 1
 1
 1
 1
 1
 1
 1
 1
 1
 1
 1
 1
 1
 1
 1
 1
 1
 1
 1
 1
 1
 1
 1
 1
 1
 1
 1
 1
 1
 1
 1
 1
 1
 1
 1
 1
 1
 1
 1
 1
 1
 1
 1
 1
 1
 1
 1
 1
 1
 1
 1
 1
-1
-1
-1
-1
-1
-1
-1
-1
-1
-1
-1
-1
-1
-1
-1
-1
-1
-1
-1
-1
-1
-1
-1
-1
-1
-1
-1
-1
-1
-1
-1
-1
-1
-1
-1
-1
-1
-1
-1
-1
-1
-1
-1
-1
-1
-1
-1
-1
-1
-1
-1
-1
-1
-1
-1
-1
-1
-1
-1
-1
-1
-1
-1
-1
-1
-1
-1
-1
-1
-1
-1
-1
-1
-1
-1
-1
-1
-1
-1
-1
-1
-1
-1
-1
-1
-1
-1
-1
-1
-1
-1
-1
-1
-1
-1
-1
-1
-1
-1
-1
-1
-1
-1
-1
-1
-1
-1
-1
-1
-1
-1
-1
-1
-1
-1
-1
-1
-1
-1
-1
-1
-1
-1
-1
-1
-1
-1
-1
-1
-1
-1
-1
-1
-1
-1
-1
-1
-1
-1
-1
-1
-1
-1
-1
