# vtk DataFile Version 3.0
T01 + IGRF magnetic field in GSW coordinates
ASCII
DATASET STRUCTURED_GRID
DIMENSIONS     61    21    21
POINTS    26901 float
     -50.000000     -10.000000     -10.000000
     -49.000000     -10.000000     -10.000000
     -48.000000     -10.000000     -10.000000
     -47.000000     -10.000000     -10.000000
     -46.000000     -10.000000     -10.000000
     -45.000000     -10.000000     -10.000000
     -44.000000     -10.000000     -10.000000
     -43.000000     -10.000000     -10.000000
     -42.000000     -10.000000     -10.000000
     -41.000000     -10.000000     -10.000000
     -40.000000     -10.000000     -10.000000
     -39.000000     -10.000000     -10.000000
     -38.000000     -10.000000     -10.000000
     -37.000000     -10.000000     -10.000000
     -36.000000     -10.000000     -10.000000
     -35.000000     -10.000000     -10.000000
     -34.000000     -10.000000     -10.000000
     -33.000000     -10.000000     -10.000000
     -32.000000     -10.000000     -10.000000
     -31.000000     -10.000000     -10.000000
     -30.000000     -10.000000     -10.000000
     -29.000000     -10.000000     -10.000000
     -28.000000     -10.000000     -10.000000
     -27.000000     -10.000000     -10.000000
     -26.000000     -10.000000     -10.000000
     -25.000000     -10.000000     -10.000000
     -24.000000     -10.000000     -10.000000
     -23.000000     -10.000000     -10.000000
     -22.000000     -10.000000     -10.000000
     -21.000000     -10.000000     -10.000000
     -20.000000     -10.000000     -10.000000
     -19.000000     -10.000000     -10.000000
     -18.000000     -10.000000     -10.000000
     -17.000000     -10.000000     -10.000000
     -16.000000     -10.000000     -10.000000
     -15.000000     -10.000000     -10.000000
     -14.000000     -10.000000     -10.000000
     -13.000000     -10.000000     -10.000000
     -12.000000     -10.000000     -10.000000
     -11.000000     -10.000000     -10.000000
     -10.000000     -10.000000     -10.000000
      -9.000000     -10.000000     -10.000000
      -8.000000     -10.000000     -10.000000
      -7.000000     -10.000000     -10.000000
      -6.000000     -10.000000     -10.000000
      -5.000000     -10.000000     -10.000000
      -4.000000     -10.000000     -10.000000
      -3.000000     -10.000000     -10.000000
      -2.000000     -10.000000     -10.000000
      -1.000000     -10.000000     -10.000000
       0.000000     -10.000000     -10.000000
       1.000000     -10.000000     -10.000000
       2.000000     -10.000000     -10.000000
       3.000000     -10.000000     -10.000000
       4.000000     -10.000000     -10.000000
       5.000000     -10.000000     -10.000000
       6.000000     -10.000000     -10.000000
       7.000000     -10.000000     -10.000000
       8.000000     -10.000000     -10.000000
       9.000000     -10.000000     -10.000000
      10.000000     -10.000000     -10.000000
     -50.000000      -9.000000     -10.000000
     -49.000000      -9.000000     -10.000000
     -48.000000      -9.000000     -10.000000
     -47.000000      -9.000000     -10.000000
     -46.000000      -9.000000     -10.000000
     -45.000000      -9.000000     -10.000000
     -44.000000      -9.000000     -10.000000
     -43.000000      -9.000000     -10.000000
     -42.000000      -9.000000     -10.000000
     -41.000000      -9.000000     -10.000000
     -40.000000      -9.000000     -10.000000
     -39.000000      -9.000000     -10.000000
     -38.000000      -9.000000     -10.000000
     -37.000000      -9.000000     -10.000000
     -36.000000      -9.000000     -10.000000
     -35.000000      -9.000000     -10.000000
     -34.000000      -9.000000     -10.000000
     -33.000000      -9.000000     -10.000000
     -32.000000      -9.000000     -10.000000
     -31.000000      -9.000000     -10.000000
     -30.000000      -9.000000     -10.000000
     -29.000000      -9.000000     -10.000000
     -28.000000      -9.000000     -10.000000
     -27.000000      -9.000000     -10.000000
     -26.000000      -9.000000     -10.000000
     -25.000000      -9.000000     -10.000000
     -24.000000      -9.000000     -10.000000
     -23.000000      -9.000000     -10.000000
     -22.000000      -9.000000     -10.000000
     -21.000000      -9.000000     -10.000000
     -20.000000      -9.000000     -10.000000
     -19.000000      -9.000000     -10.000000
     -18.000000      -9.000000     -10.000000
     -17.000000      -9.000000     -10.000000
     -16.000000      -9.000000     -10.000000
     -15.000000      -9.000000     -10.000000
     -14.000000      -9.000000     -10.000000
     -13.000000      -9.000000     -10.000000
     -12.000000      -9.000000     -10.000000
     -11.000000      -9.000000     -10.000000
     -10.000000      -9.000000     -10.000000
      -9.000000      -9.000000     -10.000000
      -8.000000      -9.000000     -10.000000
      -7.000000      -9.000000     -10.000000
      -6.000000      -9.000000     -10.000000
      -5.000000      -9.000000     -10.000000
      -4.000000      -9.000000     -10.000000
      -3.000000      -9.000000     -10.000000
      -2.000000      -9.000000     -10.000000
      -1.000000      -9.000000     -10.000000
       0.000000      -9.000000     -10.000000
       1.000000      -9.000000     -10.000000
       2.000000      -9.000000     -10.000000
       3.000000      -9.000000     -10.000000
       4.000000      -9.000000     -10.000000
       5.000000      -9.000000     -10.000000
       6.000000      -9.000000     -10.000000
       7.000000      -9.000000     -10.000000
       8.000000      -9.000000     -10.000000
       9.000000      -9.000000     -10.000000
      10.000000      -9.000000     -10.000000
     -50.000000      -8.000000     -10.000000
     -49.000000      -8.000000     -10.000000
     -48.000000      -8.000000     -10.000000
     -47.000000      -8.000000     -10.000000
     -46.000000      -8.000000     -10.000000
     -45.000000      -8.000000     -10.000000
     -44.000000      -8.000000     -10.000000
     -43.000000      -8.000000     -10.000000
     -42.000000      -8.000000     -10.000000
     -41.000000      -8.000000     -10.000000
     -40.000000      -8.000000     -10.000000
     -39.000000      -8.000000     -10.000000
     -38.000000      -8.000000     -10.000000
     -37.000000      -8.000000     -10.000000
     -36.000000      -8.000000     -10.000000
     -35.000000      -8.000000     -10.000000
     -34.000000      -8.000000     -10.000000
     -33.000000      -8.000000     -10.000000
     -32.000000      -8.000000     -10.000000
     -31.000000      -8.000000     -10.000000
     -30.000000      -8.000000     -10.000000
     -29.000000      -8.000000     -10.000000
     -28.000000      -8.000000     -10.000000
     -27.000000      -8.000000     -10.000000
     -26.000000      -8.000000     -10.000000
     -25.000000      -8.000000     -10.000000
     -24.000000      -8.000000     -10.000000
     -23.000000      -8.000000     -10.000000
     -22.000000      -8.000000     -10.000000
     -21.000000      -8.000000     -10.000000
     -20.000000      -8.000000     -10.000000
     -19.000000      -8.000000     -10.000000
     -18.000000      -8.000000     -10.000000
     -17.000000      -8.000000     -10.000000
     -16.000000      -8.000000     -10.000000
     -15.000000      -8.000000     -10.000000
     -14.000000      -8.000000     -10.000000
     -13.000000      -8.000000     -10.000000
     -12.000000      -8.000000     -10.000000
     -11.000000      -8.000000     -10.000000
     -10.000000      -8.000000     -10.000000
      -9.000000      -8.000000     -10.000000
      -8.000000      -8.000000     -10.000000
      -7.000000      -8.000000     -10.000000
      -6.000000      -8.000000     -10.000000
      -5.000000      -8.000000     -10.000000
      -4.000000      -8.000000     -10.000000
      -3.000000      -8.000000     -10.000000
      -2.000000      -8.000000     -10.000000
      -1.000000      -8.000000     -10.000000
       0.000000      -8.000000     -10.000000
       1.000000      -8.000000     -10.000000
       2.000000      -8.000000     -10.000000
       3.000000      -8.000000     -10.000000
       4.000000      -8.000000     -10.000000
       5.000000      -8.000000     -10.000000
       6.000000      -8.000000     -10.000000
       7.000000      -8.000000     -10.000000
       8.000000      -8.000000     -10.000000
       9.000000      -8.000000     -10.000000
      10.000000      -8.000000     -10.000000
     -50.000000      -7.000000     -10.000000
     -49.000000      -7.000000     -10.000000
     -48.000000      -7.000000     -10.000000
     -47.000000      -7.000000     -10.000000
     -46.000000      -7.000000     -10.000000
     -45.000000      -7.000000     -10.000000
     -44.000000      -7.000000     -10.000000
     -43.000000      -7.000000     -10.000000
     -42.000000      -7.000000     -10.000000
     -41.000000      -7.000000     -10.000000
     -40.000000      -7.000000     -10.000000
     -39.000000      -7.000000     -10.000000
     -38.000000      -7.000000     -10.000000
     -37.000000      -7.000000     -10.000000
     -36.000000      -7.000000     -10.000000
     -35.000000      -7.000000     -10.000000
     -34.000000      -7.000000     -10.000000
     -33.000000      -7.000000     -10.000000
     -32.000000      -7.000000     -10.000000
     -31.000000      -7.000000     -10.000000
     -30.000000      -7.000000     -10.000000
     -29.000000      -7.000000     -10.000000
     -28.000000      -7.000000     -10.000000
     -27.000000      -7.000000     -10.000000
     -26.000000      -7.000000     -10.000000
     -25.000000      -7.000000     -10.000000
[...]
POINT_DATA    26901
VECTORS B_total float
  -9.4688549E+00  -1.2587528E+00   3.2485359E+00
  -9.7934771E+00  -1.2935001E+00   3.3339322E+00
  -1.0127456E+01  -1.3298728E+00   3.4199464E+00
  -1.0471066E+01  -1.3680637E+00   3.5063250E+00
  -1.0824623E+01  -1.4082929E+00   3.5927813E+00
  -1.1188492E+01  -1.4508127E+00   3.6789947E+00
  -1.1563088E+01  -1.4959104E+00   3.7646036E+00
  -1.1948894E+01  -1.5439129E+00   3.8492002E+00
  -1.2346456E+01  -1.5951899E+00   3.9323235E+00
  -1.2756401E+01  -1.6501607E+00   4.0134511E+00
  -1.3179439E+01  -1.7092977E+00   4.0919900E+00
  -1.3616364E+01  -1.7731332E+00   4.1672654E+00
  -1.4068069E+01  -1.8422655E+00   4.2385092E+00
  -1.4535535E+01  -1.9173660E+00   4.3048463E+00
  -1.5019841E+01  -1.9991869E+00   4.3652835E+00
  -1.5522155E+01  -2.0885696E+00   4.4186916E+00
  -1.6043728E+01  -2.1864552E+00   4.4637961E+00
  -1.6585880E+01  -2.2938950E+00   4.4991651E+00
  -1.7149994E+01  -2.4120634E+00   4.5231948E+00
  -1.7737482E+01  -2.5422726E+00   4.5341101E+00
  -1.8349773E+01  -2.6859918E+00   4.5299559E+00
  -1.8988285E+01  -2.8448672E+00   4.5086026E+00
  -1.9654385E+01  -3.0207489E+00   4.4677491E+00
  -2.0349377E+01  -3.2157209E+00   4.4049335E+00
  -2.1074440E+01  -3.4321406E+00   4.3175411E+00
  -2.1830597E+01  -3.6726797E+00   4.2028193E+00
  -2.2618666E+01  -3.9403877E+00   4.0578890E+00
  -2.3439163E+01  -4.2387371E+00   3.8797503E+00
  -2.4292217E+01  -4.5717001E+00   3.6653116E+00
  -2.5177412E+01  -4.9438210E+00   3.4114165E+00
  -2.6093607E+01  -5.3602934E+00   3.1149220E+00
  -2.7038715E+01  -5.8270392E+00   2.7728138E+00
  -2.8009417E+01  -6.3507853E+00   2.3824029E+00
  -2.9000893E+01  -6.9391179E+00   1.9415987E+00
  -3.0006542E+01  -7.6005106E+00   1.4492574E+00
  -3.1017717E+01  -8.3442736E+00   9.0558845E-01
  -3.2023514E+01  -9.1803846E+00   3.1257141E-01
  -3.3010532E+01  -1.0119078E+01  -3.2566082E-01
  -3.3962673E+01  -1.1170094E+01  -1.0024786E+00
  -3.4860828E+01  -1.2341413E+01  -1.7084560E+00
  -3.5682594E+01  -1.3637278E+01  -2.4309475E+00
  -3.6402107E+01  -1.5055460E+01  -3.1533718E+00
  -3.6990490E+01  -1.6583759E+01  -3.8539217E+00
  -3.7417595E+01  -1.8196163E+01  -4.5036478E+00
  -3.7655857E+01  -1.9849403E+01  -5.0641804E+00
  -3.7686867E+01  -2.1481178E+01  -5.4859343E+00
  -3.7510349E+01  -2.3011459E+01  -5.7080832E+00
  -3.7153969E+01  -2.4348122E+01  -5.6615591E+00
  -3.6681080E+01  -2.5397072E+01  -5.2757034E+00
  -3.6193115E+01  -2.6075447E+01  -4.4875965E+00
  -3.1262636E-03  -8.2550049E-02   6.9910097E-01
  -4.3783784E-02  -8.3068848E-02   6.8851900E-01
  -7.9894781E-02  -9.3991280E-02   6.6899443E-01
  -1.0789967E-01  -1.1337852E-01   6.4298201E-01
  -1.2588024E-01  -1.3836002E-01   6.1361766E-01
  -1.3370275E-01  -1.6579533E-01   5.8401513E-01
  -1.3266754E-01  -1.9292450E-01   5.5668807E-01
  -1.2490082E-01  -2.1775532E-01   5.3325415E-01
  -1.1276150E-01  -2.3913288E-01   5.1444668E-01
  -9.8398209E-02  -2.5662851E-01   5.0027579E-01
  -8.3495617E-02  -2.7035141E-01   4.9028057E-01
  -9.5119963E+00  -1.1731132E+00   3.2457035E+00
  -9.8385878E+00  -1.2051252E+00   3.3296967E+00
  -1.0174739E+01  -1.2386595E+00   3.4141786E+00
  -1.0520753E+01  -1.2738955E+00   3.4988909E+00
  -1.0876976E+01  -1.3110386E+00   3.5835443E+00
  -1.1243810E+01  -1.3503239E+00   3.6678138E+00
  -1.1621708E+01  -1.3920193E+00   3.7513337E+00
  -1.2011199E+01  -1.4364295E+00   3.8336921E+00
  -1.2412878E+01  -1.4839002E+00   3.9144223E+00
  -1.2827427E+01  -1.5348229E+00   3.9929948E+00
  -1.3255614E+01  -1.5896401E+00   4.0688081E+00
  -1.3698306E+01  -1.6488509E+00   4.1411767E+00
  -1.4156466E+01  -1.7130177E+00   4.2093172E+00
  -1.4631160E+01  -1.7827725E+00   4.2723379E+00
  -1.5123557E+01  -1.8588262E+00   4.3292208E+00
  -1.5634930E+01  -1.9419760E+00   4.3788080E+00
  -1.6166641E+01  -2.0331175E+00   4.4197888E+00
  -1.6720140E+01  -2.1332552E+00   4.4506841E+00
  -1.7296951E+01  -2.2435172E+00   4.4698343E+00
  -1.7898643E+01  -2.3651710E+00   4.4753938E+00
  -1.8526829E+01  -2.4996457E+00   4.4653230E+00
  -1.9183128E+01  -2.6485536E+00   4.4373851E+00
  -1.9869156E+01  -2.8137219E+00   4.3891492E+00
  -2.0586475E+01  -2.9972277E+00   4.3179927E+00
  -2.1336592E+01  -3.2014444E+00   4.2211018E+00
  -2.2120895E+01  -3.4290912E+00   4.0954752E+00
  -2.2940632E+01  -3.6833084E+00   3.9379203E+00
  -2.3796816E+01  -3.9677198E+00   3.7450500E+00
  -2.4690149E+01  -4.2865295E+00   3.5132823E+00
  -2.5620876E+01  -4.6446238E+00   3.2388544E+00
  -2.6588606E+01  -5.0476875E+00   2.9178619E+00
  -2.7592085E+01  -5.5023327E+00   2.5463538E+00
  -2.8628925E+01  -6.0162420E+00   2.1204731E+00
  -2.9695314E+01  -6.5983038E+00   1.6366837E+00
  -3.0785679E+01  -7.2587442E+00   1.0920380E+00
  -3.1892345E+01  -8.0091848E+00   4.8449653E-01
  -3.3005146E+01  -8.8625793E+00  -1.8677247E-01
  -3.4110889E+01  -9.8329077E+00  -9.2109478E-01
  -3.5192688E+01  -1.0934441E+01  -1.7160074E+00
  -3.6228954E+01  -1.2180346E+01  -2.5668490E+00
  -3.7192242E+01  -1.3580414E+01  -3.4660010E+00
  -3.8048096E+01  -1.5137583E+01  -4.4013906E+00
  -3.8754677E+01  -1.6843346E+01  -5.3539052E+00
  -3.9264233E+01  -1.8672276E+01  -6.2936068E+00
  -3.9527863E+01  -2.0576591E+01  -7.1751928E+00
  -3.9504677E+01  -2.2482567E+01  -7.9341273E+00
  -3.9175171E+01  -2.4290773E+01  -8.4855499E+00
  -3.8556736E+01  -2.5882555E+01  -8.7282743E+00
  -3.7716698E+01  -2.7133512E+01  -8.5551825E+00
  -3.6777374E+01  -2.7932571E+01  -7.8689528E+00
  -3.5908501E+01  -2.8201912E+01  -6.5990725E+00
  -4.9584627E-02  -5.8578491E-02   7.6103735E-01
  -9.6612453E-02  -7.0461273E-02   7.3508501E-01
  -1.3262606E-01  -9.3045235E-02   6.9944143E-01
  -1.5500975E-01  -1.2250233E-01   6.5887260E-01
  -1.6375446E-01  -1.5472412E-01   6.1807489E-01
  -1.6092205E-01  -1.8619633E-01   5.8072543E-01
  -1.4965296E-01  -2.1448612E-01   5.4908347E-01
  -1.3325548E-01  -2.3831081E-01   5.2404332E-01
  -1.1458302E-01  -2.5734806E-01   5.0544792E-01
  -9.5772743E-02  -2.7189302E-01   4.9251655E-01
  -9.5499487E+00  -1.0832152E+00   3.2422659E+00
  -9.8783121E+00  -1.1122409E+00   3.3249884E+00
  -1.0216421E+01  -1.1426675E+00   3.4080851E+00
  -1.0564605E+01  -1.1746597E+00   3.4912953E+00
  -1.0923241E+01  -1.2084061E+00   3.5743260E+00
  -1.1292758E+01  -1.2441223E+00   3.6568489E+00
  -1.1673655E+01  -1.2820543E+00   3.7384956E+00
  -1.2066493E+01  -1.3224822E+00   3.8188493E+00
  -1.2471918E+01  -1.3657238E+00   3.8974385E+00
  -1.2890660E+01  -1.4121397E+00   3.9737282E+00
  -1.3323549E+01  -1.4621376E+00   4.0471082E+00
  -1.3771509E+01  -1.5161785E+00   4.1168823E+00
  -1.4235578E+01  -1.5747823E+00   4.1822557E+00
  -1.4716899E+01  -1.6385356E+00   4.2423177E+00
  -1.5216733E+01  -1.7080989E+00   4.2960291E+00
  -1.5736445E+01  -1.7842163E+00   4.3422050E+00
  -1.6277514E+01  -1.8677254E+00   4.3794985E+00
  -1.6841509E+01  -1.9595706E+00   4.4063864E+00
  -1.7430092E+01  -2.0608170E+00   4.4211559E+00
  -1.8045000E+01  -2.1726682E+00   4.4218931E+00
  -1.8688025E+01  -2.2964883E+00   4.4064746E+00
  -1.9360998E+01  -2.4338274E+00   4.3725605E+00
  -2.0065777E+01  -2.5864553E+00   4.3175907E+00
  -2.0804214E+01  -2.7564013E+00   4.2387829E+00
  -2.1578154E+01  -2.9459996E+00   4.1331220E+00
  -2.2389389E+01  -3.1579647E+00   3.9973543E+00
  -2.3239632E+01  -3.3954470E+00   3.8279672E+00
  -2.4130461E+01  -3.6621346E+00   3.6211674E+00
  -2.5063232E+01  -3.9623597E+00   3.3728600E+00
  -2.6038973E+01  -4.3012295E+00   3.0786309E+00
  -2.7058199E+01  -4.6847768E+00   2.7337534E+00
  -2.8120724E+01  -5.1201463E+00   2.3332295E+00
  -2.9225386E+01  -5.6158009E+00   1.8718774E+00
  -3.0369774E+01  -6.1817560E+00   1.3444631E+00
  -3.1549862E+01  -6.8298197E+00   7.4586034E-01
  -3.2759602E+01  -7.5737972E+00   7.1215153E-02
  -3.3990349E+01  -8.4295940E+00  -6.8392539E-01
  -3.5230026E+01  -9.4150581E+00  -1.5235096E+00
  -3.6461864E+01  -1.0549379E+01  -2.4508331E+00
  -3.7662582E+01  -1.1851706E+01  -3.4681163E+00
  -3.8800041E+01  -1.3338644E+01  -4.5754061E+00
  -3.9830673E+01  -1.5020212E+01  -5.7682123E+00
  -4.0697674E+01  -1.6894022E+01  -7.0332470E+00
  -4.1331665E+01  -1.8937916E+01  -8.3420715E+00
  -4.1655983E+01  -2.1101971E+01  -9.6431713E+00
  -4.1598705E+01  -2.3302036E+01  -1.0854605E+01
  -4.1111832E+01  -2.5418016E+01  -1.1860529E+01
  -4.0195103E+01  -2.7300404E+01  -1.2515767E+01
  -3.8917683E+01  -2.8787558E+01  -1.2661295E+01
  -3.7428360E+01  -2.9732197E+01  -1.2149645E+01
  -3.5946079E+01  -3.0030872E+01  -1.0873926E+01
  -3.4729202E+01  -2.9646492E+01  -8.7902994E+00
  -1.1517906E-01  -5.6186676E-02   8.1968117E-01
  -1.6106606E-01  -8.1138611E-02   7.7143002E-01
  -1.8861389E-01  -1.1429405E-01   7.1610975E-01
  -1.9810867E-01  -1.5047550E-01   6.6066694E-01
  -1.9271660E-01  -1.8535709E-01   6.1039162E-01
  -1.7693043E-01  -2.1610355E-01   5.6838083E-01
  -1.5528870E-01  -2.4139309E-01   5.3564000E-01
  -1.3152313E-01  -2.6105261E-01   5.1171577E-01
  -1.0824919E-01  -2.7562952E-01   4.9533045E-01
  -9.5828381E+00  -9.8966211E-01   3.2383804E+00
  -9.9127722E+00  -1.0154825E+00   3.3199668E+00
  -1.0252619E+01  -1.0425662E+00   3.4018285E+00
  -1.0602732E+01  -1.0710611E+00   3.4837017E+00
  -1.0963514E+01  -1.1011375E+00   3.5652914E+00
  -1.1335426E+01  -1.1329894E+00   3.6462665E+00
  -1.1718998E+01  -1.1668388E+00   3.7262554E+00
  -1.2114830E+01  -1.2029377E+00   3.8048377E+00
  -1.2523609E+01  -1.2415733E+00   3.8815382E+00
  -1.2946114E+01  -1.2830714E+00   3.9558156E+00
  -1.3383223E+01  -1.3278005E+00   4.0270529E+00
  -1.3835922E+01  -1.3761786E+00   4.0945454E+00
  -1.4305314E+01  -1.4286772E+00   4.1574841E+00
  -1.4792616E+01  -1.4858302E+00   4.2149448E+00
  -1.5299170E+01  -1.5482395E+00   4.2658668E+00
  -1.5826436E+01  -1.6165856E+00   4.3090396E+00
  -1.6375994E+01  -1.6916372E+00   4.3430843E+00
  -1.6949537E+01  -1.7742636E+00   4.3664360E+00
  -1.7548861E+01  -1.8654498E+00   4.3773317E+00
  -1.8175856E+01  -1.9663142E+00   4.3737922E+00
  -1.8832495E+01  -2.0781310E+00   4.3536153E+00
  -1.9520823E+01  -2.2023575E+00   4.3143620E+00
  -2.0242939E+01  -2.3406680E+00   4.2533488E+00
  -2.1000994E+01  -2.4949961E+00   4.1676359E+00
  -2.1797173E+01  -2.6675847E+00   4.0540123E+00
  -2.2633692E+01  -2.8610640E+00   3.9089730E+00
  -2.3512762E+01  -3.0785158E+00   3.7286863E+00
  -2.4436565E+01  -3.3235855E+00   3.5089502E+00
  -2.5407181E+01  -3.6006031E+00   3.2451434E+00
  -2.6426498E+01  -3.9147358E+00   2.9321780E+00
  -2.7496092E+01  -4.2721767E+00   2.5644593E+00
  -2.8617025E+01  -4.6803703E+00   2.1358643E+00
  -2.9789648E+01  -5.1482887E+00   1.6397544E+00
  -3.1013321E+01  -5.6867599E+00   1.0689811E+00
  -3.2286091E+01  -6.3088250E+00   4.1589636E-01
  -3.3604214E+01  -7.0301042E+00  -3.2770395E-01
  -3.4961449E+01  -7.8690968E+00  -1.1707106E+00
  -3.6347897E+01  -8.8472557E+00  -2.1229053E+00
  -3.7748138E+01  -9.9886112E+00  -3.1950855E+00
  -3.9138447E+01  -1.1318563E+01  -4.3987799E+00
  -4.0482952E+01  -1.2861364E+01  -5.7449255E+00
  -4.1729156E+01  -1.4635655E+01  -7.2406054E+00
  -4.2803997E+01  -1.6647612E+01  -8.8828259E+00
  -4.3612720E+01  -1.8881546E+01  -1.0648771E+01
  -4.4043991E+01  -2.1288883E+01  -1.2483087E+01
  -4.3984665E+01  -2.3777920E+01  -1.4284887E+01
  -4.3346184E+01  -2.6208620E+01  -1.5899633E+01
  -4.2099998E+01  -2.8398384E+01  -1.7123171E+01
  -4.0312405E+01  -3.0142750E+01  -1.7723454E+01
  -3.8164112E+01  -3.1250883E+01  -1.7480246E+01
  -3.5939655E+01  -3.1587376E+01  -1.6233158E+01
  -3.3982563E+01  -3.1105537E+01  -1.3920409E+01
  -3.2628151E+01  -2.9857943E+01  -1.0590874E+01
  -1.9179821E-01  -8.5256577E-02   8.5858154E-01
  -2.2524452E-01  -1.1992264E-01   7.8473186E-01
  -2.3526096E-01  -1.5778732E-01   7.1104050E-01
  -2.2649956E-01  -1.9384289E-01   6.4494181E-01
  -2.0525265E-01  -2.2498226E-01   5.9047699E-01
  -1.7755604E-01  -2.4990177E-01   5.4873133E-01
  -1.4811325E-01  -2.6867151E-01   5.1873922E-01
  -1.2004757E-01  -2.8208637E-01   4.9853182E-01
  -9.6108322E+00  -8.9301121E-01   3.2342873E+00
  -9.9421310E+00  -9.1543710E-01   3.3148766E+00
  -1.0283491E+01  -9.3897378E-01   3.3956566E+00
  -1.0635287E+01  -9.6375155E-01   3.4763615E+00
  -1.0997944E+01  -9.8991984E-01   3.5566943E+00
  -1.1371951E+01  -1.0176497E+00   3.6363215E+00
  -1.1757866E+01  -1.0471358E+00   3.7148690E+00
  -1.2156323E+01  -1.0786009E+00   3.7919140E+00
  -1.2568048E+01  -1.1122977E+00   3.8669767E+00
  -1.2993859E+01  -1.1485132E+00   3.9395118E+00
  -1.3434684E+01  -1.1875736E+00   4.0088959E+00
  -1.3891562E+01  -1.2298478E+00   4.0744147E+00
  -1.4365653E+01  -1.2757542E+00   4.1352506E+00
  -1.4858242E+01  -1.3257663E+00   4.1904635E+00
  -1.5370749E+01  -1.3804196E+00   4.2389755E+00
  -1.5904716E+01  -1.4403212E+00   4.2795520E+00
  -1.6461823E+01  -1.5061584E+00   4.3107848E+00
  -1.7043871E+01  -1.5787117E+00   4.3310728E+00
  -1.7652784E+01  -1.6588686E+00   4.3386035E+00
  -1.8290600E+01  -1.7476407E+00   4.3313413E+00
  -1.8959467E+01  -1.8461871E+00   4.3070087E+00
  -1.9661627E+01  -1.9558393E+00   4.2630749E+00
  -2.0399424E+01  -2.0781364E+00   4.1967397E+00
  -2.1175293E+01  -2.2148681E+00   4.1049166E+00
  -2.1991764E+01  -2.3681238E+00   3.9842057E+00
  -2.2851475E+01  -2.5403733E+00   3.8308625E+00
  -2.3757143E+01  -2.7345340E+00   3.6407447E+00
  -2.4711567E+01  -2.9540877E+00   3.4092505E+00
  -2.5717587E+01  -3.2032113E+00   3.1312397E+00
  -2.6778021E+01  -3.4869452E+00   2.8009472E+00
  -2.7895580E+01  -3.8114016E+00   2.4118941E+00
  -2.9072727E+01  -4.1840296E+00   1.9567981E+00
  -3.0311535E+01  -4.6139421E+00   1.4274743E+00
  -3.1613455E+01  -5.1123209E+00   8.1471246E-01
  -3.2979057E+01  -5.6928864E+00   1.0807347E-01
  -3.4407536E+01  -6.3724189E+00  -7.0443648E-01
  -3.5895920E+01  -7.1712637E+00  -1.6368626E+00
  -3.7437634E+01  -8.1136799E+00  -2.7059388E+00
  -3.9020027E+01  -9.2277699E+00  -3.9316661E+00
  -4.0620541E+01  -1.0544615E+01  -5.3373966E+00
  -4.2201180E+01  -1.2095949E+01  -6.9484873E+00
  -4.3701622E+01  -1.3909655E+01  -8.7882786E+00
  -4.5032295E+01  -1.6002159E+01  -1.0869753E+01
  -4.6070335E+01  -1.8367279E+01  -1.3181652E+01
  -4.6663200E+01  -2.0962067E+01  -1.5669275E+01
  -4.6645592E+01  -2.3692017E+01  -1.8213028E+01
  -4.5874153E+01  -2.6401354E+01  -2.0612461E+01
  -4.4277992E+01  -2.8876173E+01  -2.2587143E+01
  -4.1912838E+01  -3.0867878E+01  -2.3805569E+01
  -3.8995686E+01  -3.2138313E+01  -2.3944939E+01
  -3.5895016E+01  -3.2516022E+01  -2.2767834E+01
  -3.3067165E+01  -3.1942955E+01  -2.0186722E+01
  -3.0956392E+01  -3.0490084E+01  -1.6285479E+01
  -2.5579048E+01  -2.4226849E+01  -9.5042925E+00
  -2.6166821E-01  -1.4678192E-01   8.6098671E-01
  -2.7202511E-01  -1.8207836E-01   7.6616573E-01
  -2.5935745E-01  -2.1535587E-01   6.8204021E-01
  -2.3209763E-01  -2.4343872E-01   6.1373949E-01
  -1.9797707E-01  -2.6521206E-01   5.6222439E-01
  -1.6275024E-01  -2.8093481E-01   5.2585363E-01
  -1.2998009E-01  -2.9160404E-01   5.0175726E-01
  -9.6341143E+00  -7.9378420E-01   3.2302763E+00
  -9.9665728E+00  -8.1265461E-01   3.3100121E+00
  -1.0309219E+01  -8.3247048E-01   3.3898683E+00
  -1.0662445E+01  -8.5334283E-01   3.4695771E+00
  -1.1026699E+01  -8.7539893E-01   3.5488398E+00
  -1.1402493E+01  -8.9878452E-01   3.6273220E+00
  -1.1790407E+01  -9.2366594E-01   3.7046466E+00
  -1.2191109E+01  -9.5023298E-01   3.7803884E+00
  -1.2605354E+01  -9.7870147E-01   3.8540649E+00
  -1.3033999E+01  -1.0093169E+00   3.9251266E+00
  -1.3478012E+01  -1.0423583E+00   3.9929442E+00
  -1.3938478E+01  -1.0781417E+00   4.0567975E+00
  -1.4416611E+01  -1.1170263E+00   4.1158586E+00
  -1.4913756E+01  -1.1594188E+00   4.1691742E+00
  -1.5431396E+01  -1.2057809E+00   4.2156520E+00
  -1.5971152E+01  -1.2566363E+00   4.2540369E+00
  -1.6534792E+01  -1.3125803E+00   4.2828932E+00
  -1.7124214E+01  -1.3742901E+00   4.3005867E+00
  -1.7741463E+01  -1.4425391E+00   4.3052649E+00
  -1.8388704E+01  -1.5182118E+00   4.2948380E+00
  -1.9068251E+01  -1.6023256E+00   4.2669625E+00
  -1.9782526E+01  -1.6960553E+00   4.2190247E+00
  -2.0534103E+01  -1.8007654E+00   4.1481190E+00
  -2.1325687E+01  -1.9180510E+00   4.0510225E+00
  -2.2160139E+01  -2.0497866E+00   3.9241645E+00
  -2.3040491E+01  -2.1982014E+00   3.7635770E+00
  -2.3969959E+01  -2.3659480E+00   3.5648291E+00
  -2.4951948E+01  -2.5562165E+00   3.3229401E+00
  -2.5990053E+01  -2.7728667E+00   3.0322776E+00
  -2.7088030E+01  -3.0205994E+00   2.6864252E+00
  -2.8249752E+01  -3.3051748E+00   2.2780418E+00
  -2.9479156E+01  -3.6336946E+00   1.7986929E+00
  -3.0780148E+01  -4.0149603E+00   1.2386401E+00
  -3.2156479E+01  -4.4599228E+00   5.8655190E-01
  -3.3611542E+01  -4.9822350E+00  -1.7093456E-01
  -3.5147961E+01  -5.5988927E+00  -1.0498706E+00
  -3.6766762E+01  -6.3309174E+00  -2.0699391E+00
  -3.8465698E+01  -7.2039623E+00  -3.2556581E+00
  -4.0236286E+01  -8.2485943E+00  -4.6376152E+00
  -4.2058926E+01  -9.4998474E+00  -6.2531471E+00
  -4.3895554E+01  -1.0995367E+01  -8.1453581E+00
  -4.5679996E+01  -1.2771173E+01  -1.0358568E+01
  -4.7307270E+01  -1.4853941E+01  -1.2927961E+01
  -4.8625389E+01  -1.7248753E+01  -1.5861081E+01
  -4.9435749E+01  -1.9922260E+01  -1.9110416E+01
  -4.9511059E+01  -2.2783695E+01  -2.2540579E+01
  -4.8638462E+01  -2.5669760E+01  -2.5900042E+01
  -4.6688725E+01  -2.8343710E+01  -2.8815098E+01
  -4.3696358E+01  -3.0519711E+01  -3.0825731E+01
  -3.9916771E+01  -3.1916388E+01  -3.1471621E+01
  -3.5820541E+01  -3.2327999E+01  -3.0409870E+01
  -3.2005829E+01  -3.1685369E+01  -2.7517324E+01
  -2.9054276E+01  -3.0077118E+01  -2.2926502E+01
  -2.7391571E+01  -2.7718998E+01  -1.6973751E+01
  -2.9232025E-01  -2.0192719E-01   9.3641853E-01
  -3.0318642E-01  -2.2811031E-01   8.1978989E-01
  -2.8674698E-01  -2.5281429E-01   7.1733665E-01
  -2.5378227E-01  -2.7309036E-01   6.3529587E-01
  -2.1375751E-01  -2.8804398E-01   5.7439327E-01
  -1.7337513E-01  -2.9808617E-01   5.3206444E-01
  -1.3661289E-01  -3.0416822E-01   5.0449538E-01
  -9.6528645E+00  -6.9247186E-01   3.2266486E+00
  -9.9862709E+00  -7.0765340E-01   3.3056796E+00
  -1.0329973E+01  -7.2360384E-01   3.3847737E+00
  -1.0684376E+01  -7.4041378E-01   3.4636629E+00
  -1.1049944E+01  -7.5818700E-01   3.5420463E+00
  -1.1427208E+01  -7.7704245E-01   3.6195884E+00
  -1.1816772E+01  -7.9711586E-01   3.6959105E+00
  -1.2219326E+01  -8.1856221E-01   3.7705851E+00
  -1.2635653E+01  -8.4155786E-01   3.8431273E+00
  -1.3066642E+01  -8.6630374E-01   3.9129841E+00
  -1.3513294E+01  -8.9302808E-01   3.9795227E+00
  -1.3976735E+01  -9.2199022E-01   4.0420156E+00
  -1.4458221E+01  -9.5348483E-01   4.0996270E+00
  -1.4959149E+01  -9.8784649E-01   4.1513948E+00
  -1.5481059E+01  -1.0254552E+00   4.1962118E+00
  -1.6025639E+01  -1.0667436E+00   4.2328053E+00
  -1.6594728E+01  -1.1122037E+00   4.2597184E+00
  -1.7190315E+01  -1.1623975E+00   4.2752886E+00
  -1.7814541E+01  -1.2179681E+00   4.2776260E+00
  -1.8469694E+01  -1.2796538E+00   4.2645979E+00
  -1.9158218E+01  -1.3483067E+00   4.2338028E+00
  -1.9882713E+01  -1.4249144E+00   4.1825538E+00
  -2.0645947E+01  -1.5106293E+00   4.1078544E+00
  -2.1450867E+01  -1.6068052E+00   4.0063643E+00
  -2.2300627E+01  -1.7150395E+00   3.8743610E+00
  -2.3198635E+01  -1.8372450E+00   3.7076776E+00
  -2.4148552E+01  -1.9757091E+00   3.5016263E+00
  -2.5154350E+01  -2.1332018E+00   3.2508888E+00
  -2.6220331E+01  -2.3130975E+00   2.9493837E+00
  -2.7351137E+01  -2.5195384E+00   2.5900998E+00
  -2.8551773E+01  -2.7576447E+00   2.1648993E+00
  -2.9827606E+01  -3.0337889E+00   1.6642647E+00
  -3.1184366E+01  -3.3559527E+00   1.0769811E+00