# vtk DataFile Version 3.0
SM polar seed points transformed to GSW coordinates
ASCII
DATASET POLYDATA
POINTS      288 float
       1.054422       0.000000       1.066862
       1.029699       0.194114       1.073331
       0.957214       0.375000       1.092299
       0.841908       0.530330       1.122471
       0.691637       0.649519       1.161793
       0.516643       0.724444       1.207585
       0.328852       0.750000       1.256725
       0.141061       0.724444       1.305865
      -0.033933       0.649519       1.351656
      -0.184204       0.530330       1.390978
      -0.299510       0.375000       1.421150
      -0.371995       0.194114       1.440118
      -0.396718      -0.000000       1.446587
      -0.371995      -0.194114       1.440118
      -0.299510      -0.375000       1.421150
      -0.184204      -0.530330       1.390978
      -0.033933      -0.649519       1.351656
       0.141061      -0.724444       1.305865
       0.328852      -0.750000       1.256725
       0.516643      -0.724444       1.207585
       0.691637      -0.649519       1.161793
       0.841907      -0.530330       1.122471
       0.957214      -0.375000       1.092299
       1.029699      -0.194114       1.073331
       0.957427       0.000000       1.154701
       0.936530       0.164072       1.160169
       0.875263       0.316964       1.176201
       0.777801       0.448254       1.201704
       0.650787       0.548997       1.234940
       0.502876       0.612327       1.273645
       0.344148       0.633927       1.315180
       0.185420       0.612327       1.356715
       0.037509       0.548997       1.395419
      -0.089505       0.448254       1.428656
      -0.186967       0.316964       1.454159
      -0.248233       0.164073       1.470191
      -0.269130      -0.000000       1.475659
      -0.248233      -0.164073       1.470191
      -0.186967      -0.316964       1.454159
      -0.089505      -0.448254       1.428656
       0.037509      -0.548997       1.395419
       0.185420      -0.612327       1.356715
       0.344148      -0.633927       1.315180
       0.502876      -0.612327       1.273645
       0.650787      -0.548997       1.234940
       0.777801      -0.448254       1.201704
       0.875263      -0.316964       1.176201
       0.936530      -0.164073       1.160169
       0.853144       0.000000       1.233752
       0.836233       0.132782       1.238178
       0.786650       0.256515       1.251152
       0.707776       0.362767       1.271791
       0.604985       0.444297       1.298689
       0.485282       0.495549       1.330012
       0.356825       0.513030       1.363626
       0.228368       0.495549       1.397240
       0.108666       0.444297       1.428563
       0.005874       0.362767       1.455461
      -0.073000       0.256515       1.476100
      -0.122582       0.132782       1.489074
      -0.139494      -0.000000       1.493500
      -0.122582      -0.132782       1.489074
      -0.073000      -0.256515       1.476100
       0.005874      -0.362767       1.455461
       0.108666      -0.444297       1.428563
       0.228368      -0.495549       1.397240
       0.356825      -0.513030       1.363626
       0.485282      -0.495549       1.330012
       0.604985      -0.444297       1.298689
       0.707776      -0.362767       1.271791
       0.786650      -0.256515       1.251152
       0.836233      -0.132782       1.238178
       0.742369       0.000000       1.303414
       0.729572       0.100481       1.306763
       0.692051       0.194114       1.316581
       0.632364       0.274519       1.332199
       0.554578       0.336216       1.352554
       0.463995       0.375000       1.376257
       0.366787       0.388229       1.401694
       0.269579       0.375000       1.427131
       0.178995       0.336216       1.450834
       0.101209       0.274519       1.471189
       0.041522       0.194114       1.486807
       0.004001       0.100481       1.496625
      -0.008796      -0.000000       1.499974
       0.004001      -0.100481       1.496625
       0.041522      -0.194114       1.486807
       0.101209      -0.274519       1.471189
       0.178995      -0.336216       1.450834
       0.269579      -0.375000       1.427131
       0.366787      -0.388229       1.401694
       0.463995      -0.375000       1.376257
       0.554578      -0.336216       1.352554
       0.632364      -0.274519       1.332199
       0.692051      -0.194114       1.316581
       0.729572      -0.100481       1.306763
       0.625944       0.000000       1.363156
       0.617358       0.067415       1.365402
       0.592184       0.130236       1.371990
       0.552139       0.184182       1.382469
       0.499950       0.225576       1.396125
       0.439176       0.251597       1.412028
       0.373957       0.260472       1.429094
       0.308737       0.251597       1.446160
       0.247963       0.225576       1.462064
       0.195774       0.184182       1.475720
       0.155729       0.130236       1.486199
       0.130555       0.067415       1.492786
       0.121969      -0.000000       1.495033
       0.130555      -0.067415       1.492786
       0.155729      -0.130236       1.486199
       0.195774      -0.184182       1.475720
       0.247963      -0.225576       1.462064
       0.308737      -0.251597       1.446160
       0.373957      -0.260472       1.429094
       0.439176      -0.251597       1.412028
       0.499950      -0.225576       1.396125
       0.552139      -0.184182       1.382469
       0.592184      -0.130236       1.371990
       0.617358      -0.067415       1.365402
       0.504756       0.000000       1.412523
       0.500446       0.033836       1.413651
       0.487811       0.065367       1.416957
       0.467712       0.092443       1.422217
       0.441518       0.113219       1.429071
       0.411015       0.126279       1.437053
       0.378280       0.130734       1.445618
       0.345546       0.126279       1.454184
       0.315043       0.113219       1.462166
       0.288849       0.092443       1.469020
       0.268750       0.065367       1.474280
       0.256115       0.033836       1.477586
       0.251805      -0.000000       1.478714
       0.256115      -0.033836       1.477586
       0.268750      -0.065367       1.474280
       0.288849      -0.092443       1.469020
       0.315043      -0.113219       1.462166
       0.345546      -0.126279       1.454184
       0.378280      -0.130734       1.445618
       0.411015      -0.126279       1.437053
       0.441518      -0.113219       1.429071
       0.467712      -0.092443       1.422217
       0.487811      -0.065367       1.416957
       0.500446      -0.033836       1.413651
       0.396718       0.000000      -1.446587
       0.371995       0.194114      -1.440118
       0.299510       0.375000      -1.421150
       0.184204       0.530330      -1.390978
       0.033933       0.649519      -1.351656
      -0.141060       0.724444      -1.305865
      -0.328852       0.750000      -1.256724
      -0.516643       0.724444      -1.207585
      -0.691637       0.649519      -1.161793
      -0.841908       0.530330      -1.122471
      -0.957214       0.375000      -1.092299
      -1.029699       0.194114      -1.073331
      -1.054422      -0.000000      -1.066862
      -1.029699      -0.194114      -1.073331
      -0.957214      -0.375000      -1.092299
      -0.841908      -0.530330      -1.122471
      -0.691637      -0.649519      -1.161793
      -0.516643      -0.724444      -1.207585
      -0.328852      -0.750000      -1.256725
      -0.141061      -0.724444      -1.305865
       0.033933      -0.649519      -1.351656
       0.184204      -0.530330      -1.390978
       0.299510      -0.375000      -1.421150
       0.371995      -0.194114      -1.440118
       0.269130       0.000000      -1.475659
       0.248233       0.164072      -1.470191
       0.186967       0.316964      -1.454159
       0.089505       0.448254      -1.428656
      -0.037509       0.548997      -1.395419
      -0.185420       0.612327      -1.356715
      -0.344148       0.633927      -1.315180
      -0.502876       0.612327      -1.273645
      -0.650787       0.548997      -1.234940
      -0.777801       0.448254      -1.201704
      -0.875263       0.316964      -1.176201
      -0.936530       0.164073      -1.160169
      -0.957427      -0.000000      -1.154701
      -0.936530      -0.164073      -1.160169
      -0.875263      -0.316964      -1.176201
      -0.777802      -0.448254      -1.201704
      -0.650787      -0.548997      -1.234940
      -0.502876      -0.612327      -1.273645
      -0.344148      -0.633927      -1.315180
      -0.185420      -0.612327      -1.356715
      -0.037509      -0.548997      -1.395419
       0.089505      -0.448254      -1.428656
       0.186967      -0.316964      -1.454159
       0.248233      -0.164073      -1.470191
       0.139494       0.000000      -1.493500
       0.122582       0.132782      -1.489074
       0.073000       0.256515      -1.476100
      -0.005874       0.362767      -1.455461
      -0.108666       0.444297      -1.428563
      -0.228368       0.495549      -1.397240
      -0.356825       0.513030      -1.363626
      -0.485282       0.495549      -1.330012
      -0.604985       0.444297      -1.298689
      -0.707776       0.362767      -1.271791
      -0.786650       0.256515      -1.251152
      -0.836233       0.132782      -1.238178
      -0.853144      -0.000000      -1.233752
      -0.836233      -0.132782      -1.238178
      -0.786650      -0.256515      -1.251152
      -0.707776      -0.362767      -1.271791
      -0.604985      -0.444297      -1.298689
      -0.485282      -0.495549      -1.330012
      -0.356825      -0.513030      -1.363626
      -0.228368      -0.495549      -1.397240
      -0.108666      -0.444297      -1.428563
      -0.005875      -0.362767      -1.455461
       0.073000      -0.256515      -1.476100
       0.122582      -0.132782      -1.489074
       0.008796       0.000000      -1.499974
      -0.004001       0.100481      -1.496625
      -0.041522       0.194114      -1.486807
      -0.101209       0.274519      -1.471189
      -0.178995       0.336216      -1.450834
      -0.269579       0.375000      -1.427131
      -0.366787       0.388229      -1.401694
      -0.463995       0.375000      -1.376257
      -0.554578       0.336216      -1.352554
      -0.632364       0.274519      -1.332199
      -0.692051       0.194114      -1.316581
      -0.729572       0.100481      -1.306763
      -0.742369      -0.000000      -1.303414
      -0.729572      -0.100481      -1.306763
      -0.692051      -0.194114      -1.316581
      -0.632364      -0.274519      -1.332199
      -0.554578      -0.336216      -1.352554
      -0.463995      -0.375000      -1.376257
      -0.366787      -0.388229      -1.401694
      -0.269579      -0.375000      -1.427131
      -0.178995      -0.336216      -1.450834
      -0.101209      -0.274519      -1.471189
      -0.041522      -0.194114      -1.486807
      -0.004001      -0.100481      -1.496625
      -0.121969       0.000000      -1.495033
      -0.130555       0.067415      -1.492786
      -0.155729       0.130236      -1.486199
      -0.195774       0.184182      -1.475720
      -0.247963       0.225576      -1.462064
      -0.308737       0.251597      -1.446160
      -0.373957       0.260472      -1.429094
      -0.439176       0.251597      -1.412028
      -0.499951       0.225576      -1.396125
      -0.552139       0.184182      -1.382469
      -0.592184       0.130236      -1.371990
      -0.617358       0.067415      -1.365402
      -0.625944      -0.000000      -1.363156
      -0.617358      -0.067415      -1.365402
      -0.592184      -0.130236      -1.371990
      -0.552139      -0.184182      -1.382469
      -0.499950      -0.225576      -1.396125
      -0.439176      -0.251597      -1.412028
      -0.373957      -0.260472      -1.429094
      -0.308737      -0.251597      -1.446160
      -0.247963      -0.225576      -1.462064
      -0.195774      -0.184182      -1.475720
      -0.155729      -0.130236      -1.486199
      -0.130555      -0.067415      -1.492786
      -0.251805       0.000000      -1.478714
      -0.256115       0.033836      -1.477586
      -0.268750       0.065367      -1.474280
      -0.288849       0.092443      -1.469020
      -0.315043       0.113219      -1.462166
      -0.345546       0.126279      -1.454184
      -0.378280       0.130734      -1.445618
      -0.411015       0.126279      -1.437053
      -0.441518       0.113219      -1.429071
      -0.467712       0.092443      -1.422217
      -0.487811       0.065367      -1.416957
      -0.500446       0.033836      -1.413651
      -0.504756      -0.000000      -1.412523
      -0.500446      -0.033836      -1.413651
      -0.487811      -0.065367      -1.416957
      -0.467712      -0.092443      -1.422217
      -0.441518      -0.113219      -1.429071
      -0.411015      -0.126279      -1.437053
      -0.378280      -0.130734      -1.445618
      -0.345546      -0.126279      -1.454184
      -0.315043      -0.113219      -1.462166
      -0.288849      -0.092443      -1.469020
      -0.268750      -0.065367      -1.474280
      -0.256115      -0.033836      -1.477586
VERTICES      288     576
 1        0
 1        1
 1        2
 1        3
 1        4
 1        5
 1        6
 1        7
 1        8
 1        9
 1       10
 1       11
 1       12
 1       13
 1       14
 1       15
 1       16
 1       17
 1       18
 1       19
 1       20
 1       21
 1       22
 1       23
 1       24
 1       25
 1       26
 1       27
 1       28
 1       29
 1       30
 1       31
 1       32
 1       33
 1       34
 1       35
 1       36
 1       37
 1       38
 1       39
 1       40
 1       41
 1       42
 1       43
 1       44
 1       45
 1       46
 1       47
 1       48
 1       49
 1       50
 1       51
 1       52
 1       53
 1       54
 1       55
 1       56
 1       57
 1       58
 1       59
 1       60
 1       61
 1       62
 1       63
 1       64
 1       65
 1       66
 1       67
 1       68
 1       69
 1       70
 1       71
 1       72
 1       73
 1       74
 1       75
 1       76
 1       77
 1       78
 1       79
 1       80
 1       81
 1       82
 1       83
 1       84
 1       85
 1       86
 1       87
 1       88
 1       89
 1       90
 1       91
 1       92
 1       93
 1       94
 1       95
 1       96
 1       97
 1       98
 1       99
 1      100
 1      101
 1      102
 1      103
 1      104
 1      105
 1      106
 1      107
 1      108
 1      109
 1      110
 1      111
 1      112
 1      113
 1      114
 1      115
 1      116
 1      117
 1      118
 1      119
 1      120
 1      121
 1      122
 1      123
 1      124
 1      125
 1      126
 1      127
 1      128
 1      129
 1      130
 1      131
 1      132
 1      133
 1      134
 1      135
 1      136
 1      137
 1      138
 1      139
 1      140
 1      141
 1      142
 1      143
 1      144
 1      145
 1      146
 1      147
 1      148
 1      149
 1      150
 1      151
 1      152
 1      153
 1      154
 1      155
 1      156
 1      157
 1      158
 1      159
 1      160
 1      161
 1      162
 1      163
 1      164
 1      165
 1      166
 1      167
 1      168
 1      169
 1      170
 1      171
 1      172
 1      173
 1      174
 1      175
 1      176
 1      177
 1      178
 1      179
 1      180
 1      181
 1      182
 1      183
 1      184
 1      185
 1      186
 1      187
 1      188
 1      189
 1      190
 1      191
 1      192
 1      193
 1      194
 1      195
 1      196
 1      197
 1      198
 1      199
 1      200
 1      201
 1      202
 1      203
 1      204
 1      205
 1      206
 1      207
 1      208
 1      209
 1      210
 1      211
 1      212
 1      213
 1      214
 1      215
 1      216
 1      217
 1      218
 1      219
 1      220
 1      221
 1      222
 1      223
 1      224
 1      225
 1      226
 1      227
 1      228
 1      229
 1      230
 1      231
 1      232
 1      233
 1      234
 1      235
 1      236
 1      237
 1      238
 1      239
 1      240
 1      241
 1      242
 1      243
 1      244
 1      245
 1      246
 1      247
 1      248
 1      249
 1      250
 1      251
 1      252
 1      253
 1      254
 1      255
 1      256
 1      257
 1      258
 1      259
 1      260
 1      261
 1      262
 1      263
 1      264
 1      265
 1      266
 1      267
 1      268
 1      269
 1      270
 1      271
 1      272
 1      273
 1      274
 1      275
 1      276
 1      277
 1      278
 1      279
 1      280
 1      281
 1      282
 1      283
 1      284
 1      285
 1      286
 1      287
POINT_DATA      288
SCALARS hemisphere int 1
LOOKUP_TABLE default
 1
 1
 1
 1
 1
 1
 1
 1
 1
 1
 1
 1
 1
 1
 1
 1
 1
 1
 1
 1
 1
 1
 1
 1
 1
 1
 1
 1
 1
 1
 1
 1
 1
 1
 1
 1
 1
 1
 1
 1
 1
 1
 1
 1
 1
 1
 1
 1
 1
 1
 1
 1
 1
 1
 1
 1
 1
 1
 1
 1
 1
 1
 1
 1
 1
 1
 1
 1
 1
 1
 1
 1
 1
 1
 1
 1
 1
 1
 1
 1
 1
 1
 1
 1
 1
 1
 1
 1
 1
 1
 1
 1
 1
 1
 1
 1
 1
 1
 1
 1
 1
 1
 1
 1
 1
 1
 1
 1
 1
 1
 1
 1
 1
 1
 1
 1
 1
 1
 1
 1
 1
 1
 1
 1
 1
 1
 1
 1
 1
 1
 1
 1
 1
 1
 1
 1
 1
 1
 1
 1
 1
 1
 1
 1
-1
-1
-1
-1
-1
-1
-1
-1
-1
-1
-1
-1
-1
-1
-1
-1
-1
-1
-1
-1
-1
-1
-1
-1
-1
-1
-1
-1
-1
-1
-1
-1
-1
-1
-1
-1
-1
-1
-1
-1
-1
-1
-1
-1
-1
-1
-1
-1
-1
-1
-1
-1
-1
-1
-1
-1
-1
-1
-1
-1
-1
-1
-1
-1
-1
-1
-1
-1
-1
-1
-1
-1
-1
-1
-1
-1
-1
-1
-1
-1
-1
-1
-1
-1
-1
-1
-1
-1
-1
-1
-1
-1
-1
-1
-1
-1
-1
-1
-1
-1
-1
-1
-1
-1
-1
-1
-1
-1
-1
-1
-1
-1
-1
-1
-1
-1
-1
-1
-1
-1
-1
-1
-1
-1
-1
-1
-1
-1
-1
-1
-1
-1
-1
-1
-1
-1
-1
-1
-1
-1
-1
-1
-1
-1
