<?xml version="1.0"?>
<VTKFile type="StructuredGrid" version="0.1" byte_order="LittleEndian" header_type="UInt32" compressor="vtkZLibDataCompressor">
  <StructuredGrid WholeExtent="0 60 0 20 0 20">
  <Piece Extent="0 60 0 20 0 20">
    <PointData Vectors="B_total">
      <DataArray type="Float32" Name="B_total" NumberOfComponents="3" format="ascii" RangeMin="0" RangeMax="56570.627584761685">
        -10.394524 -1.5370821 3.1658766 -10.740632 -1.5792079 3.2542317
        -11.095676 -1.622833 3.3433373 -11.45985 -1.6681211 3.4328725
        -11.833379 -1.7152622 3.5224738 -12.216535 -1.7644764 3.6117282
        -12.609642 -1.8160157 3.7001677 -13.013081 -1.8701692 3.7872627
        -13.4273 -1.927265 3.8724139 -13.852821 -1.9876764 3.9549444
        -14.290239 -2.0518248 4.034089 -14.740238 -2.1201854 4.108984
        -15.203586 -2.1932912 4.178657 -15.681136 -2.271741 4.242013
        -16.17383 -2.356204 4.297824 -16.68269 -2.4474287 4.3447204
        -17.208809 -2.5462513 4.3811755 -17.753336 -2.6536062 4.405504
        -18.317467 -2.7705383 4.4158554 -18.902412 -2.8982196 4.4102116
        -19.509384 -3.037967 4.3863935 -20.13955 -3.1912656 4.3420696
        -20.794014 -3.3597975 4.274768 -21.47376 -3.545476 4.181894
        -22.179623 -3.7504861 4.0607524 -22.912216 -3.9773347 3.9085698
        -23.671854 -4.2289047 3.72252 -24.458466 -4.5085244 3.4997578
        -25.271458 -4.820034 3.2374628 -26.109539 -5.1678743 2.9329126
        -26.970503 -5.557163 2.5835924 -27.850979 -5.9937887 2.1873689
        -28.746117 -6.4844866 1.7427326 -29.64929 -7.0368953 1.2491363
        -30.551767 -7.6595516 0.70740485 -31.442427 -8.361786 0.12021875
        -32.307503 -9.153421 -0.50738347 -33.13037 -10.044168 -1.1674757
        -33.891384 -11.042556 -1.8487463 -34.56779 -12.154259 -2.535928
        -35.133793 -13.379637 -3.209099 -35.561066 -14.710472 -3.8425899
        -35.820137 -16.126118 -4.4034085 -35.883408 -17.589521 -4.8491035
        -35.73044 -19.044231 -5.1256337 -35.35586 -20.413677 -5.1661553
        -34.77897 -21.604156 -4.8921475 -34.05299 -22.512566 -4.217906
        -33.270485 -23.038425 -3.058342 0.1147958 -0.37037945 0.29541254
        0.13573456 -0.34258652 0.31626987 0.14690065 -0.312747 0.34287834
        0.14767027 -0.28398418 0.37229824 0.13908005 -0.2590742 0.40154576
        0.12340212 -0.23986912 0.4281838 0.10350275 -0.22714996 0.4506514
        0.082149506 -0.22067833 0.46831626 0.061578274 -0.21952868 0.48130843
        0.04325199 -0.22239876 0.49024555 0.027925968 -0.22796488 0.49595404
        0.015775204 -0.2350564 0.49928284 -10.43998 -1.4317926 3.1575954
        -10.787539 -1.4703825 3.244047 -11.144192 -1.5103385 3.3310752
        -11.510153 -1.5518104 3.4183547 -11.885678 -1.5949725 3.5055168
        -12.271072 -1.6400261 3.5921428 -12.666694 -1.6872028 3.6777596
        -13.072962 -1.7367679 3.761832 -13.490366 -1.7890241 3.8437545
        -13.919472 -1.8443152 3.922843 -14.360926 -1.9030306 3.9983244
        -14.815465 -1.9656103 4.0693254 -15.283912 -2.0325496 4.134861
        -15.767185 -2.1044059 4.1938233 -16.266294 -2.1818054 4.244968
        -16.782333 -2.265451 4.2869024 -17.316477 -2.356132 4.318075
        -17.869968 -2.4547358 4.3367696 -18.444107 -2.562262 4.341093
        -19.040222 -2.67984 4.3289785 -19.65966 -2.8087502 4.2981825
        -20.303755 -2.9504497 4.246289 -20.973793 -3.106607 4.1707187
        -21.670996 -3.279141 4.06874 -22.396458 -3.4702692 3.937475
        -23.151115 -3.6825695 3.7739148 -23.935665 -3.9190464 3.574932
        -24.750484 -4.1832204 3.337294 -25.595512 -4.4792233 3.0576897
        -26.470076 -4.8119106 2.7327743 -27.372702 -5.1870017 2.3592513
        -28.300861 -5.611212 1.9339957 -29.250673 -6.0924144 1.4542422
        -30.216572 -6.639784 0.91783166 -31.19094 -7.263889 0.32351664
        -32.163685 -7.9766912 -0.3287008 -33.121742 -8.791345 -1.0371816
        -34.048454 -9.721625 -1.7982508 -34.922825 -10.780855 -2.6056705
        -35.71856 -11.97999 -3.44986 -36.4032 -13.324743 -4.3165894
        -36.9376 -14.811485 -5.1847963 -37.276703 -16.422127 -6.023277
        -37.372715 -18.11847 -6.786359 -37.181973 -19.837261 -7.4093375
        -36.676247 -21.487911 -7.8054805 -35.85748 -22.955093 -7.866893
        -34.772964 -24.108208 -7.471564 -33.525433 -24.817934 -6.497019
        -32.272137 -24.976915 -4.838146 -0.65401864 -0.9489155 0.20924664
        0.1794548 -0.2784996 0.31707764 0.17666674 -0.24525833 0.35698795
        0.1619134 -0.21822834 0.39548445 0.13878441 -0.19946289 0.42924953
        0.11143303 -0.18936157 0.45642304 0.083618164 -0.18706417 0.4765736
        0.058088303 -0.19089031 0.49031729 0.036431313 -0.19890213 0.49884462
        0.019233704 -0.20930481 0.5034951 0.006362915 -0.22064877 0.50550365
        -10.472452 -1.3201618 3.1469052 -10.821063 -1.3550037 3.231595
        -11.178905 -1.3910729 3.316713 -11.546215 -1.4285046 3.40193
        -11.923279 -1.4674565 3.486874 -12.310428 -1.5081103 3.571124
        -12.708052 -1.5506762 3.6542032 -13.116608 -1.5953947 3.7355733
        -13.536622 -1.6425408 3.814626 -13.968703 -1.6924273 3.8906732
        -14.413545 -1.7454091 3.9629366 -14.871929 -1.801888 4.0305376
        -15.344737 -1.8623179 4.0924845 -15.832947 -1.9272109 4.14766
        -16.33763 -1.9971442 4.194807 -16.859955 -2.0727687 4.232518
        -17.401176 -2.154818 4.2592235 -17.962635 -2.2441227 4.273179
        -18.545723 -2.3416235 4.27246 -19.151897 -2.4483902 4.254955
        -19.78265 -2.5656457 4.2183614 -20.43948 -2.6947942 4.1601896
        -21.123877 -2.837457 4.077758 -21.837305 -2.9955173 3.9681985
        -22.581156 -3.1711762 3.8284569 -23.356716 -3.3670173 3.655291
        -24.165115 -3.5860925 3.445266 -25.00725 -3.8320215 3.19475
        -25.883682 -4.1091127 2.8999174 -26.794497 -4.42251 2.5567575
        -27.739132 -4.778368 2.1611137 -28.716145 -5.1840563 1.7087469
        -29.722942 -5.648386 1.1954343 -30.755451 -6.1818557 0.6171014
        -31.807693 -6.7968645 -0.0300304 -32.87125 -7.5078526 -0.74928796
        -33.934517 -8.331241 -1.5433779 -34.981647 -9.285019 -2.414157
        -35.991062 -10.387715 -3.362185 -36.933556 -11.656471 -4.385771
        -37.77006 -13.1038 -5.479072 -38.449753 -14.732777 -6.628639
        -38.909565 -16.530529 -7.807978 -39.077015 -18.460539 -8.970206
        -38.87844 -20.45505 -10.039842 -38.2542 -22.410084 -10.906424
        -37.180412 -24.186737 -11.423892 -35.69294 -25.621758 -11.419991
        -33.905586 -26.549326 -10.717604 -32.01219 -26.830315 -9.164977
        -30.265827 -26.381378 -6.6656857 -2.0072236 -2.1310005 0.030639648
        0.20841503 -0.18901634 0.3503952 0.18451786 -0.16177559 0.39978743
        0.15122223 -0.1460371 0.44104958 0.11444569 -0.14149761 0.47222805
        0.07909012 -0.1462307 0.49348354 0.048345566 -0.1575098 0.50631344
        0.023719788 -0.17262793 0.5127764 0.0053720474 -0.18929386 0.5149183
        -0.007353306 -0.20584822 0.51443756 -10.494051 -1.2024815 3.1333294
        -10.843388 -1.2333866 3.2163866 -11.202075 -1.2653763 3.2997468
        -11.570374 -1.2985704 3.3830795 -11.948592 -1.3331089 3.466011
        -12.337089 -1.369154 3.548119 -12.736283 -1.4068928 3.6289268
        -13.146663 -1.44654 3.7078943 -13.56879 -1.4883412 3.7844124
        -14.003313 -1.5325762 3.857792 -14.450965 -1.5795634 3.9272532
        -14.912577 -1.6296638 3.9919152 -15.389079 -1.6832857 4.0507827
        -15.881504 -1.7408917 4.1027317 -16.390987 -1.8030044 4.1464996
        -16.918766 -1.8702154 4.1806684 -17.466171 -1.9431951 4.203653
        -18.03463 -2.022705 4.2136893 -18.625643 -2.109613 4.2088256
        -19.24079 -2.2049127 4.186913 -19.881697 -2.309746 4.145599
        -20.550043 -2.4254358 4.0823226 -21.247524 -2.5535202 3.9943085
        -21.975853 -2.6958017 3.8785617 -22.736732 -2.8544064 3.7318552
        -23.531828 -3.0318532 3.5507195 -24.362732 -3.2311497 3.3314147
        -25.230904 -3.4559007 3.069909 -26.13761 -3.7104511 2.7618477
        -27.083797 -4.0000567 2.4025283 -28.06997 -4.3310976 1.9868791
        -29.09598 -4.7113295 1.5094488 -30.16082 -5.150192 0.9643942
        -31.262308 -5.6591434 0.34546217 -32.396633 -6.2520046 -0.35406113
        -33.55775 -6.9452567 -1.1414483 -34.736374 -7.7581854 -2.0246582
        -35.918514 -8.712688 -3.0123987 -37.0832 -9.832451 -4.1138854
        -38.19943 -11.141139 -5.337871 -39.22235 -12.659072 -6.6902246
        -40.089363 -14.397846 -8.169163 -40.71767 -16.352596 -9.757336
        -41.005802 -18.492046 -11.41047 -40.842514 -20.747614 -13.043884
        -40.126232 -23.00486 -14.520452 -38.795406 -25.101677 -15.646189
        -36.86537 -26.8394 -16.181154 -34.459366 -28.009563 -15.870405
        -31.817396 -28.433762 -14.492167 -29.269697 -28.005356 -11.909123
        -27.175571 -26.716503 -8.1012745 0.24087143 -0.11256409 0.3612318
        0.20390415 -0.08836937 0.42232418 0.15729809 -0.07957363 0.47009945
        0.10916519 -0.08450031 0.5030451 0.06560993 -0.09969902 0.52254677
        0.030044556 -0.1211834 0.53155875 0.003455162 -0.14535093 0.5333963
        -0.01474762 -0.16952991 0.53096 -0.026015282 -0.19199657 0.5264292
        -10.507028 -1.0791126 3.117314 -10.856836 -1.1059115 3.198874
        -11.216101 -1.133648 3.280635 -11.5851 -1.1624271 3.3622665
        -11.964164 -1.1923704 3.443394 -12.353674 -1.2236192 3.5235958
        -12.754078 -1.2563372 3.6023948 -13.165892 -1.2907112 3.6792536
        -13.589708 -1.3269565 3.7535625 -14.026208 -1.3653181 3.8246338
        -14.476167 -1.4060751 3.8916888 -14.940454 -1.4495447 3.9538457
        -15.420046 -1.4960865 4.0101085 -15.916028 -1.5461086 4.059352
        -16.42959 -1.6000737 4.1003084 -16.962038 -1.6585072 4.1315536
        -17.514772 -1.7220067 4.151492 -18.089302 -1.7912533 4.1583447
        -18.687235 -1.8670282 4.150138 -19.310259 -1.9502295 4.124691
        -19.960146 -2.041896 4.079606 -20.638737 -2.143238 4.01226
        -21.347935 -2.2556734 3.9197927 -22.08971 -2.3808746 3.7990887
        -22.866066 -2.5208292 3.6467605 -23.67906 -2.6779134 3.4591203
        -24.530756 -2.8549876 3.2321355 -25.423214 -3.0555134 2.9613817
        -26.358435 -3.2837062 2.6419806 -27.338299 -3.5447211 2.2685328
        -28.364468 -3.8448946 1.8350276 -29.438265 -4.192034 1.3347459
        -30.56049 -4.595777 0.7601235 -31.731165 -5.068013 0.10254764
        -32.94913 -5.6233444 -0.64793503 -34.21135 -6.279543 -1.5030329
        -35.511753 -7.057909 -2.476727 -36.83934 -7.9833565 -3.5857606
        -38.17518 -9.083907 -4.8497934 -39.48811 -10.389198 -6.2906427
        -40.729034 -11.927316 -7.929549 -41.82454 -13.719254 -9.781234
        -42.67153 -15.770267 -11.843218 -43.13623 -18.05786 -14.079617
        -43.06261 -20.517601 -16.400429 -42.295456 -23.029848 -18.640776
        -40.72121 -25.413887 -20.549324 -38.321735 -27.437557 -21.798552
        -35.22471 -28.848452 -22.027098 -31.724697 -29.425014 -20.912933
        -28.251427 -29.032993 -18.256319 -25.283113 -27.664352 -14.037224
        -23.232998 -25.438992 -8.416088 0.21570396 -0.00017547607 0.47315025
        0.15252686 -0.0032997131 0.5241127 0.0916338 -0.02218151 0.55424213
        0.040096283 -0.0513649 0.5671606 0.000998497 -0.08543968 0.56798506
        -0.025691032 -0.12008095 0.56164455 -0.04182148 -0.15242004 0.5519737
        -0.049863815 -0.1809411 0.5415219 -10.513607 -0.9505534 3.0999942
        -10.863701 -0.9730935 3.1802154 -11.223338 -0.9964218 3.2605562
        -11.592816 -1.0206265 3.3406866 -11.972485 -1.0458109 3.420233
        -12.362742 -1.0720947 3.498775 -12.764061 -1.0996162 3.575838
        -13.176983 -1.1285344 3.6508853 -13.602126 -1.1590317 3.72331
        -14.040203 -1.1913166 3.7924259 -14.492021 -1.2256266 3.8574567
        -14.958488 -1.2622323 3.917522 -15.44062 -1.3014408 3.9716268
        -15.939548 -1.3436012 4.0186462 -16.456516 -1.3891109 4.05731
        -16.99288 -1.4384216 4.0861907 -17.550114 -1.492049 4.103686
        -18.129805 -1.5505835 4.1080046 -18.733646 -1.6147044 4.0971556
        -19.363438 -1.6851957 4.0689306 -20.021074 -1.76297 4.0208955
        -20.708565 -1.8490946 3.9503715 -21.428005 -1.9448278 3.8544202
        -22.181599 -2.051663 3.7298212 -22.971655 -2.1713853 3.5730386
        -23.800594 -2.3061433 3.380183 -24.670956 -2.4585428 3.146949
        -25.585382 -2.6317637 2.8685422 -26.546618 -2.829708 2.5395875
        -27.557487 -3.0571961 2.1540065 -28.620861 -3.320211 1.7048712
        -29.739582 -3.6262066 1.1842024 -30.916386 -3.9845004 0.5826929
        -32.153713 -4.4067416 -0.11069065 -33.453354 -4.9074497 -0.90927815
        -34.81579 -5.504613 -1.8294837 -36.238873 -6.2202253 -2.8917913
        -37.715683 -7.080657 -4.121814 -39.23076 -8.116515 -5.551049
        -40.754658 -9.36161 -7.2165823 -42.23616 -10.850233 -9.158422
        -43.593033 -12.611878 -11.412621 -44.702866 -14.662343 -13.99791
        -45.39823 -16.990429 -16.893965 -45.472828 -19.540852 -20.011599
        -44.707283 -22.196585 -23.159967 -42.921013 -24.76791 -26.023428
        -40.047016 -26.998816 -28.16756 -36.20883 -28.600567 -29.093786
        -31.760984 -29.312603 -28.345062 -27.253948 -28.973927 -25.633604
        -23.31519 -27.574371 -20.9342 -20.486916 -25.258743 -14.491055
        -12.566875 -14.717815 -4.2644587 0.1320591 0.0743866 0.6102381
        0.058101654 0.037618637 0.63010025 0.00008583069 -0.008018494 0.6294489
        -0.040071487 -0.05581665 0.6163435 -0.06417084 -0.10106087 0.597507
        -0.075715065 -0.14109612 0.5775821 -0.07847214 -0.17490292 0.55923426
        -10.515849 -0.8174554 3.0828977 -10.866096 -0.8356041 3.1619668
        -11.225961 -0.85438794 3.2410936 -11.595753 -0.8738786 3.319948
        -11.975838 -0.8941598 3.3981586 -12.366632 -0.9153287 3.4753065
        -12.768627 -0.93749785 3.5509188 -13.182383 -0.96079654 3.6244617
        -13.608543 -0.98537326 3.6953304 -14.047846 -1.0113977 3.7628424
        -14.501125 -1.0390638 3.8262227 -14.969321 -1.0685923 3.8845942
        -15.453485 -1.1002345 3.9369636 -15.954784 -1.1342764 3.9822063
        -16.474508 -1.1710441 4.0190535 -17.014063 -1.2109092 4.046074
        -17.57498 -1.2542974 4.061661 -18.158915 -1.3016969 4.0640154
        -18.76764 -1.3536713 4.0511312 -19.403044 -1.4108739 4.0207796
        -20.067152 -1.4740676 3.9704933 -20.762102 -1.5441484 3.8975475
        -21.490168 -1.6221777 3.7989378 -22.253769 -1.7094203 3.67135
        -23.055487 -1.8073975 3.5111194 -23.898083 -1.9179482 3.3141801
        -24.784521 -2.0433168 3.0759826 -25.717995 -2.1862583 2.7914011
        -26.701952 -2.3501787 2.4546075 -27.74011 -2.5393147 2.0589066
        -28.836496 -2.758969 1.5965153 -29.995445 -3.0158095 1.0582747
        -31.221603 -3.3182504 0.43322122 -32.519844 -3.676928 -0.29200768
        -33.895004 -4.105265 -1.1340349 -35.351273 -4.6201267 -2.1139314
        -36.890877 -5.2424817 -3.2587237 -38.511627 -5.9979687 -4.6031213
        -40.20274 -6.9171205 -6.191039 -41.938126 -8.034785 -8.07604
        -43.666786 -9.388086 -10.319098 -45.30036 -11.011839 -12.981249
        -46.699707 -12.930206 -16.107813 -47.66499 -15.143324 -19.701069
        -47.937912 -17.608921 -23.680077 -47.22838 -20.221632 -27.83304
        -45.2769 -22.79741 -31.777864 -41.953133 -25.075666 -34.95971
        -37.365612 -26.751831 -36.71678 -31.929285 -27.543497 -36.425007
        -26.33039 -27.272264 -33.68323 -21.369799 -25.925137 -28.455254
        -17.740358 -23.660797 -21.085365 -15.843084 -20.755756 -12.171825
        0.09211159 0.1389103 0.73174095 0.006509781 0.08270359 0.73128796
        -0.054998398 0.020796776 0.70859146 -0.09268761 -0.03939247 0.675128
        -0.11086845 -0.09331751 0.6393709 -0.11510849 -0.13897371 0.6063678
        -0.11053753 -0.17612791 0.5784333 -10.515535 -0.6806056 3.067652
        -10.865851 -0.6942518 3.1457875 -11.225842 -0.7083772 3.2239347
        -11.59583 -0.72303605 3.3017642 -11.976189 -0.73829216 3.3789074
        -12.367354 -0.75421935 3.454946 -12.769828 -0.7709032 3.5294094
        -13.184187 -0.7884422 3.6017666 -13.611096 -0.8069494 3.6714153
        -14.051311 -0.82655424 3.7376752 -14.505689 -0.8474045 3.7997742
        -14.975194 -0.86966896 3.856838 -15.460908 -0.8935397 3.9078746
        -15.964027 -0.91923577 3.951762 -16.485876 -0.94700706 3.9872305
        -17.027905 -0.9771393 4.012849 -17.591688 -1.0099598 4.0270076
        -18.178936 -1.0458455 4.0279 -18.79149 -1.0852321 4.01351
        -19.43132 -1.128626 3.9815922 -20.100542 -1.1766207 3.929653
        -20.801409 -1.2299151 3.85493 -21.536346 -1.2893395 3.7543654
        -22.307953 -1.3558884 3.624568 -23.11904 -1.4307584 3.46177
        -23.972656 -1.5154065 3.2617557 -24.872135 -1.6116166 3.0197728
        -25.82114 -1.7215879 2.7304192 -26.823725 -1.8480542 2.3874843
        -27.884398 -1.9944339 1.9837439 -29.008202 -2.165033 1.5106862
        -30.2008 -2.3653007 0.9581219 -31.468576 -2.6021671 0.31363842
        -32.81862 -2.8844624 -0.43818682 -34.258625 -3.2234416 -1.3169317
        -35.796303 -3.6333926 -2.34788 -37.438168 -4.132314 -3.5640752
        -39.186913 -4.742551 -5.00872 -41.03686 -5.4912243 -6.737543
        -42.96637 -6.410074 -8.820153 -44.92646 -7.534091 -11.338523
        -46.825516 -8.898029 -14.37962 -48.511387 -10.529366 -18.017847
        -49.756004 -12.436499 -22.282518 -50.25245 -14.5914 -27.107452
        -49.640507 -16.908772 -32.266968 -47.578056 -19.228456 -37.3174
        -43.863106 -21.313448 -41.581875 -38.579536 -22.877846 -44.224854
        -32.196873 -23.64978 -44.437847 -25.539139 -23.453936 -41.69083
        -19.588726 -22.27537 -35.931362 -15.196762 -20.26735 -27.61191
        -12.844398 -17.696825 -17.51942 -4.6554966 -5.421583 -1.8647995
        -0.061681747 0.098217964 0.8520031 -0.12245369 0.02435112 0.79905796
        -0.15366554 -0.043481827 0.73971605 -0.16267395 -0.10159826 0.68365717
        -0.15722275 -0.14901781 0.63570976 -0.1437521 -0.18638563 0.597281
        -10.514103 -0.54088783 3.055742 -10.864439 -0.5499456 3.13319
        -11.224491 -0.5593238 3.2106178 -11.594589 -0.56905913 3.2876983
        -11.975117 -0.5791946 3.3640628 -12.366517 -0.58978003 3.4392953
        -12.769304 -0.6008734 3.512927 -13.184068 -0.61254126 3.5844285
        -13.611485 -0.62486005 3.6532001 -14.052325 -0.63791746 3.7185628
        -14.507463 -0.65181357 3.7797475 -14.977881 -0.66666275 3.8358817
        -15.46468 -0.6825954 3.8859754 -15.969082 -0.6997602 3.9289072
        -16.492435 -0.7183273 3.9634092 -17.036219 -0.7384908 3.9880495
        -17.602045 -0.7604742 4.0012155 -18.191664 -0.7845347 4.001097
        -18.806963 -0.81097025 3.9856713 -19.449974 -0.8401278 3.9526787
        -20.122883 -0.87241465 3.8996074 -20.828033 -0.9083112 3.8236685
        -21.567957 -0.94838965 3.721764 -22.345392 -0.9933369 3.5904455
        -23.163322 -1.0439806 3.425868 -24.025017 -1.1013317 3.2237036
        -24.93409 -1.1666304 2.9790492 -25.894567 -1.2414105 2.6862931
        -26.910969 -1.3275836 2.338934 -27.988419 -1.4275495 1.9293456
        -29.132757 -1.5443405 1.4484527 -30.350706 -1.6818125 0.88527274
        -31.650013 -1.8448892 0.2262633 -33.039574 -2.0398808 -0.5456212
        -34.529392 -2.2748795 -1.4522922 -36.130116 -2.5602298 -2.5224094
        -37.851864 -2.909077 -3.7938719 -39.701614 -3.3379147 -5.3168383
        -41.678337 -3.867022 -7.1568465 -43.76481 -4.520528 -9.3970585
        -45.91493 -5.325673 -12.137577 -48.035988 -6.310496 -15.488352
        -49.96706 -7.4988604 -19.550503 -51.458496 -8.901685 -24.379745
        -52.16368 -10.503445 -29.927116 -51.662525 -12.245174 -35.960236
        -49.538902 -14.008877 -41.985935 -45.523113 -15.613762 -47.221
        -39.67047 -16.836224 -50.6717 -32.493217 -17.459044 -51.35713
        -24.936031 -17.339159 -48.623188 -18.144564 -16.462515 -42.39943
        -13.112827 -14.951294 -33.238377 -10.392765 -13.018487 -22.102007
        -10.006004 -10.897206 -10.020487 -0.14003372 0.07088137 0.97812843
        -0.19556236 -0.005982876 0.88997364 -0.21683502 -0.0733242 0.80219746
        -0.2143631 -0.12886405 0.7248988 -0.19796467 -0.17273259 0.66197944
        -0.17499447 -0.20635092 0.61343724 -10.512601 -0.39924458 3.0483356
        -10.862932 -0.40365553 3.1253636 -11.223004 -0.4082261 3.2023532
        -11.593151 -0.4129751 3.278978 -11.973763 -0.4179244 3.3548698
        -12.365287 -0.4230994 3.4296145 -12.768245 -0.42852974 3.5027432
        -13.183232 -0.43424922 3.5737288 -13.610935 -0.440297 3.6419718
        -14.052134 -0.44671783 3.706796 -14.50771 -0.4535629 3.7674327
        -14.978658 -0.46089068 3.823011 -15.466089 -0.46876788 3.872542
        -15.971242 -0.47727066 3.9149058 -16.495478 -0.48648626 3.9488347
        -17.040298 -0.49651426 3.972896 -17.607332 -0.5074693 3.9854767
        -18.198359 -0.51948345 3.9847646 -18.815294 -0.53270984 3.9687302
        -19.460205 -0.547327 3.9351082 -20.135319 -0.5635441 3.8813758
        -20.843037 -0.5816087 3.8047264 -21.585957 -0.60181487 3.7020378
        -22.366903 -0.6245166 3.5698276 -23.188965 -0.6501387 3.4042006
        -24.05555 -0.6792016 3.2007637 -24.970446 -0.7123426 2.954519
        -25.937904 -0.7503504 2.6597242 -26.962746 -0.7942069 2.3096995
        -28.050472 -0.8451448 1.8965681 -29.207438 -0.9047215 1.4109019
        -30.441025 -0.97491753 0.8412207 -31.759874 -1.0582638 0.17326988
        -33.174034 -1.1580057 -0.61102533 -34.69501 -1.2783102 -1.5350654
        -36.335392 -1.4245164 -2.6296725 -38.107693 -1.6034272 -3.9358883
        -40.02178 -1.8236144 -5.5083995 -42.079876 -2.0956767 -7.4192014
        -44.26799 -2.4323335 -9.76048 -46.542404 -2.848112 -12.644572
        -48.810455 -3.3582633 -16.19721 -50.906372 -3.9762528 -20.538298
        -52.567165 -4.709257 -25.742798 -53.420616 -5.550933 -31.775562
        -53.006386 -6.4720273 -38.402176 -50.85723 -7.4114046 -45.09808
        -46.654755 -8.273327 -51.00778 -40.431503 -8.93811 -55.027004
        -32.7261 -9.286566 -56.05129 -24.565544 -9.237997 -53.33628
        -17.20897 -8.782957 -46.796837 -11.750122 -7.987239 -37.056145
        -8.789858 -6.966282 -25.200603 -8.340481 -5.846155 -12.388191
        -0.21735954 -0.0049533844 1.0887051 -0.26420593 -0.07272577 0.9665222
        -0.2738285 -0.12954259 0.852643 -0.2594986 -0.17473161 0.7567096
        -0.23250961 -0.20933568 0.68118644 -0.20083427 -0.23513067 0.6244728
        -10.511663 -0.25664747 3.0461717 -10.86198 -0.25638247 3.1230612
        -11.222046 -0.2561154 3.1999068 -11.592195 -0.25584683 3.2763813
        -11.972818 -0.25557727 3.3521175 -12.364368 -0.25530753 3.4267004
        -12.767365 -0.25503838 3.4996636 -13.182411 -0.25477085 3.5704782
        -13.61019 -0.25450614 3.638547 -14.051487 -0.25424555 3.7031927
        -14.507187 -0.25399068 3.7636478 -14.978289 -0.25374335 3.819042
        -15.465906 -0.25350562 3.8683865 -15.971283 -0.25328007 3.910562
        -16.495785 -0.25306934 3.9443004 -17.040918 -0.25287673 3.9681697
        -17.608322 -0.25270584 3.9805558 -18.199781 -0.25256082 3.9796457
        -18.81722 -0.25244626 3.963409 -19.462719 -0.2523674 3.9295776
        -20.13852 -0.2523299 3.875625 -20.84704 -0.25233993 3.7987394
        -21.5909 -0.25240427 3.6957898 -22.37295 -0.25253037 3.563283
        -23.196316 -0.2527233 3.3973098 -24.064447 -0.25298965 3.1934533
        -24.981188 -0.25333387 2.946686 -25.95087 -0.2537573 2.6512237
        -26.978403 -0.25425667 2.3003287 -28.069418 -0.25482085 1.8860433
        -29.230434 -0.2554268 1.3988262 -30.469057 -0.25603274 0.82703465
        -31.794216 -0.25657073 0.15618569 -33.216335 -0.25693333 -0.6321295
        -34.747437 -0.2569578 -1.5617952 -36.400734 -0.25640303 -2.664341
        -38.189564 -0.25492337 -3.981837 -40.12476 -0.2520353 -5.570458
        -42.209633 -0.24708652 -7.504327 -44.431316 -0.23923752 -9.87862
        -46.746967 -0.22747266 -12.809757 -49.06403 -0.21069284 -16.42877
        -51.215256 -0.18787043 -20.86193 -52.933434 -0.15843171 -26.190815
        -53.83798 -0.12270832 -32.385223 -53.455315 -0.082461774 -39.21057
        -51.300934 -0.041360736 -46.132248 -47.03958 -0.0053532124 -52.271072
        -40.695415 0.016823828 -56.485638 -32.815792 0.019645631 -57.62933
        -24.45454 0.00213629 -54.926346 -16.908382 -0.033575684 -48.285572
        -11.304808 -0.08139545 -38.353172 -8.261803 -0.13252822 -26.257187
        -7.789259 -0.17864428 -13.198746 -0.2803936 -0.12248302 1.1614552
        -0.31727028 -0.16947739 1.0138893 -0.3160553 -0.20664583 0.8816862
        -0.29174042 -0.23478514 0.77338505 -0.2564125 -0.25540972 0.689965
        -0.21818447 -0.2701641 0.6284444 -10.511506 -0.11407857 3.049503
        -10.861804 -0.10913902 3.1265407 -11.221839 -0.10403575 3.2035396
        -11.591949 -0.09875111 3.2801735 -11.972519 -0.09326438 3.3560739
        -12.363999 -0.0875516 3.4308262 -12.766911 -0.08158495 3.5039625
        -13.181849 -0.07533249 3.574954 -13.609498 -0.06875745 3.6432035
        -14.050639 -0.061817855 3.7080326 -14.506153 -0.054465666 3.7686734
        -14.977034 -0.04664605 3.8242543 -15.464394 -0.038296584 3.8737872
        -15.969466 -0.029345915 3.9161515 -16.493616 -0.019712662 3.9500794
        -17.038342 -0.009303492 3.9741385 -17.605274 0.001988802 3.9867156
        -18.196184 0.014288029 3.985998 -18.81299 0.027737886 3.9699574
        -19.457762 0.042506386 3.9363277 -20.132717 0.058791224 3.882587
        -20.84026 0.07682719 3.8059287 -21.58298 0.0968952 3.7032323
        -22.363697 0.11933335 3.571016 -23.1855 0.1445561 3.4053884
        -24.05178 0.17306985 3.201958 -24.96633 0.20550245 2.9557326
        -25.933384 0.24263796 2.660977 -26.957745 0.2854634 2.311019
        -28.044897 0.33523124 1.8979971 -29.201172 0.39354113 1.4125037
        -30.433926 0.46245098 0.8430874 -31.75175 0.54461986 0.17553446
        -33.164642 0.6434952 -0.6081661 -34.68403 0.76355195 -1.5313272
        -36.322407 0.91058445 -2.624642 -38.092163 1.0920466 -3.9289632
        -40.003006 1.3174183 -5.4987 -42.05696 1.5985174 -7.4054537
        -44.239822 1.94962 -9.740846 -46.507687 2.3871167 -12.616412
        -48.76783 2.928246 -16.156878 -50.85467 3.58827 -20.480839
        -52.506027 4.3752513 -25.661934 -53.35135 5.2820244 -31.66402
        -52.933044 6.275832 -38.25285 -50.78737 7.2885847 -44.906326
        -46.598915 8.213492 -50.774815 -40.40142 8.91622 -54.76256
        -32.731907 9.267815 -55.774033 -24.609934 9.185929 -53.0704
        -17.285046 8.665457 -46.565357 -11.844183 7.7832174 -36.873955
        -8.88694 6.670258 -25.07127 -8.429068 5.4673967 -12.305796
        -0.31822395 -0.26247644 1.180872 -0.3462143 -0.28146315 1.0224066
        -0.3372326 -0.29373074 0.8835821 -0.30671692 -0.3012036 0.7716665
        -0.26670837 -0.30544746 0.6865356 -0.22509193 -0.30761468 0.6244359
        -10.511916 0.027480083 3.0580776 -10.862185 0.03706249 3.1355443
        -11.222166 0.046969026 3.212991 -11.592188 0.057235394 3.2900891
        -11.972634 0.067903325 3.3664706 -12.363948 0.07902126 3.441719
        -12.766642 0.09064527 3.5153656 -13.181307 0.10283993 3.5868807
        -13.608617 0.11567932 3.6556635 -14.049343 0.12924832 3.721037
        -14.504357 0.14364378 3.7822297 -14.974644 0.1589764 3.8383696
        -15.461298 0.1753721 3.8884668 -15.965542 0.19297467 3.9314003
        -16.488724 0.21194838 3.965901 -17.032318 0.232481 3.9905367
        -17.597939 0.25478828 4.0036955 -18.18733 0.27911884 4.003567
        -18.80238 0.30576107 3.9881282 -19.445112 0.33505124 3.9551203
        -20.117708 0.3673842 3.9020324 -20.822508 0.40322766 3.8260765
        -21.562038 0.44313934 3.7241569 -22.339024 0.48778957 3.5928264
        -23.15644 0.5379941 3.4282465 -24.017546 0.5947478 3.2260942
        -24.925934 0.6592787 2.9814765 -25.885612 0.7331126 2.688793
        -26.901077 0.81816095 2.3415627 -27.977411 0.9168353 1.932185
        -29.120413 1.0321999 1.4516234 -30.33674 1.1681706 0.88894975
        -31.634066 1.329777 0.23070614 -33.021187 1.5234975 -0.54004455
        -34.507957 1.7576792 -1.4450402 -36.104866 2.043049 -2.512702
        -37.8218 2.3932917 -3.780579 -39.665432 2.8256447 -5.298317
        -41.634422 3.3613718 -7.1307383 -43.71118 4.025834 -9.35998
        -45.84931 4.8476877 -12.084746 -47.956043 5.856396 -15.413167
        -49.87095 7.076956 -19.444185 -51.3459 8.52056 -24.231312
        -52.037376 10.170468 -29.724089 -51.530144 11.964393 -35.69078
        -49.41422 13.778575 -41.642918 -45.425262 15.424006 -46.80732
        -39.620552 16.668007 -50.205048 -32.507694 17.287558 -50.870167
        -25.018713 17.139236 -48.157703 -18.283152 16.213005 -41.994698
        -13.283442 14.639008 -32.91967 -10.569218 12.640845 -21.875427
        -10.167915 10.461524 -9.875883 -0.32615662 -0.3993454 1.1443138
        -0.3478489 -0.38992214 0.99107933 -0.3353386 -0.37749958 0.8582258
        -0.3031788 -0.3647642 0.75182104 -0.26267815 -0.35314584 0.67130566
        -0.22116756 -0.34320354 0.61284447 -10.512264 0.1670575 3.0711553
        -10.862479 0.18122165 3.1493196 -11.222363 0.1958682 3.2274945
        -11.592237 0.21105051 3.3053515 -11.972477 0.2268309 3.38252
        -12.363512 0.24328177 3.4585824 -12.765848 0.2604868 3.5330684
        -13.180059 0.2785425 3.6054456 -13.606811 0.29755932 3.6751127
        -14.046856 0.31766394 3.7413878 -14.501051 0.33900082 3.8034997
        -14.97036 0.36173475 3.860573 -15.455857 0.38605347 3.9116156
        -15.958744 0.4121708 3.9555051 -16.48034 0.44033074 3.9909725
        -17.022089 0.47081208 4.016585 -17.58557 0.50393456 4.0307336
        -18.172483 0.54006594 4.0316114 -18.784666 0.5796319 4.0172033
        -19.424086 0.6231279 3.9852633 -20.092846 0.6711339 3.9332993
        -20.7932 0.7243353 3.8585513 -21.52756 0.78354686 3.757964
        -22.298508 0.8497448 3.6281478 -23.108845 0.9241116 3.4653451
        -23.961605 1.0080858 3.2653463 -24.86009 1.1034343 3.023413
        -25.80794 1.2123427 2.7341607 -26.809166 1.3375361 2.3914046