# vtk DataFile Version 3.0
SM polar seed points transformed to GSW coordinates
ASCII
DATASET POLYDATA
POINTS      288 float
       0.852719       0.000000       1.234046
       0.827248       0.194114       1.236115
       0.752568       0.375000       1.242182
       0.633771       0.530330       1.251833
       0.478950       0.649519       1.264410
       0.298659       0.724444       1.279056
       0.105182       0.750000       1.294773
      -0.088295       0.724444       1.310490
      -0.268587       0.649519       1.325136
      -0.423407       0.530330       1.337713
      -0.542205       0.375000       1.347364
      -0.616884       0.194114       1.353431
      -0.642356      -0.000000       1.355500
      -0.616884      -0.194114       1.353431
      -0.542205      -0.375000       1.347364
      -0.423407      -0.530330       1.337713
      -0.268587      -0.649519       1.325136
      -0.088295      -0.724444       1.310490
       0.105182      -0.750000       1.294773
       0.298659      -0.724444       1.279056
       0.478950      -0.649519       1.264410
       0.633770      -0.530330       1.251833
       0.752568      -0.375000       1.242182
       0.827247      -0.194114       1.236115
       0.741920       0.000000       1.303670
       0.720391       0.164072       1.305418
       0.657269       0.316964       1.310546
       0.556857       0.448254       1.318703
       0.425997       0.548997       1.329334
       0.273608       0.612327       1.341713
       0.110074       0.633927       1.354998
      -0.053460       0.612327       1.368283
      -0.205849       0.548997       1.380662
      -0.336708       0.448254       1.391293
      -0.437120       0.316964       1.399450
      -0.500242       0.164073       1.404577
      -0.521772      -0.000000       1.406327
      -0.500242      -0.164073       1.404577
      -0.437120      -0.316964       1.399450
      -0.336708      -0.448254       1.391293
      -0.205849      -0.548997       1.380662
      -0.053459      -0.612327       1.368283
       0.110074      -0.633927       1.354998
       0.273608      -0.612327       1.341713
       0.425997      -0.548997       1.329334
       0.556857      -0.448254       1.318703
       0.657269      -0.316964       1.310546
       0.720390      -0.164073       1.305419
       0.625475       0.000000       1.363371
       0.608051       0.132782       1.364787
       0.556967       0.256515       1.368937
       0.475705       0.362767       1.375538
       0.369802       0.444297       1.384141
       0.246475       0.495549       1.394160
       0.114129       0.513030       1.404911
      -0.018217       0.495549       1.415662
      -0.141544       0.444297       1.425681
      -0.247447       0.362767       1.434284
      -0.328709       0.256515       1.440885
      -0.379793       0.132782       1.445035
      -0.397217      -0.000000       1.446450
      -0.379793      -0.132782       1.445035
      -0.328709      -0.256515       1.440885
      -0.247447      -0.362767       1.434284
      -0.141544      -0.444297       1.425681
      -0.018217      -0.495549       1.415662
       0.114129      -0.513030       1.404911
       0.246475      -0.495549       1.394160
       0.369802      -0.444297       1.384141
       0.475705      -0.362767       1.375538
       0.556967      -0.256515       1.368937
       0.608051      -0.132782       1.364787
       0.504269       0.000000       1.412697
       0.491084       0.100481       1.413768
       0.452427       0.194114       1.416909
       0.390933       0.274519       1.421904
       0.310792       0.336216       1.428414
       0.217466       0.375000       1.435996
       0.117315       0.388229       1.444131
       0.017164       0.375000       1.452267
      -0.076162       0.336216       1.459849
      -0.156303       0.274519       1.466359
      -0.217797       0.194114       1.471355
      -0.256454       0.100481       1.474495
      -0.269639      -0.000000       1.475566
      -0.256454      -0.100481       1.474495
      -0.217797      -0.194114       1.471355
      -0.156303      -0.274519       1.466359
      -0.076162      -0.336216       1.459849
       0.017164      -0.375000       1.452267
       0.117315      -0.388229       1.444131
       0.217466      -0.375000       1.435996
       0.310792      -0.336216       1.428414
       0.390933      -0.274519       1.421904
       0.452427      -0.194114       1.416909
       0.491084      -0.100481       1.413768
       0.379225       0.000000       1.451271
       0.370379       0.067415       1.451990
       0.344443       0.130236       1.454097
       0.303185       0.184182       1.457448
       0.249417       0.225576       1.461816
       0.186802       0.251597       1.466903
       0.119608       0.260472       1.472361
       0.052414       0.251597       1.477820
      -0.010200       0.225576       1.482906
      -0.063969       0.184182       1.487274
      -0.105227       0.130236       1.490626
      -0.131163       0.067415       1.492733
      -0.140009      -0.000000       1.493451
      -0.131163      -0.067415       1.492733
      -0.105227      -0.130236       1.490626
      -0.063969      -0.184182       1.487274
      -0.010200      -0.225576       1.482906
       0.052414      -0.251597       1.477820
       0.119608      -0.260472       1.472361
       0.186802      -0.251597       1.466903
       0.249417      -0.225576       1.461816
       0.303185      -0.184182       1.457448
       0.344443      -0.130236       1.454097
       0.370379      -0.067415       1.451990
       0.251296       0.000000       1.478800
       0.246856       0.033836       1.479161
       0.233838       0.065367       1.480219
       0.213130       0.092443       1.481901
       0.186144       0.113219       1.484093
       0.154717       0.126279       1.486646
       0.120991       0.130734       1.489386
       0.087266       0.126279       1.492125
       0.055839       0.113219       1.494678
       0.028852       0.092443       1.496871
       0.008144       0.065367       1.498553
      -0.004873       0.033836       1.499610
      -0.009313      -0.000000       1.499971
      -0.004873      -0.033836       1.499610
       0.008144      -0.065367       1.498553
       0.028852      -0.092443       1.496871
       0.055839      -0.113219       1.494678
       0.087266      -0.126279       1.492125
       0.120991      -0.130734       1.489386
       0.154717      -0.126279       1.486646
       0.186144      -0.113219       1.484093
       0.213130      -0.092443       1.481901
       0.233838      -0.065367       1.480219
       0.246856      -0.033836       1.479161
       0.642356       0.000000      -1.355500
       0.616884       0.194114      -1.353431
       0.542205       0.375000      -1.347364
       0.423407       0.530330      -1.337713
       0.268587       0.649519      -1.325136
       0.088295       0.724444      -1.310490
      -0.105182       0.750000      -1.294773
      -0.298659       0.724444      -1.279056
      -0.478951       0.649519      -1.264410
      -0.633771       0.530330      -1.251833
      -0.752568       0.375000      -1.242182
      -0.827247       0.194114      -1.236115
      -0.852719      -0.000000      -1.234046
      -0.827248      -0.194114      -1.236115
      -0.752568      -0.375000      -1.242182
      -0.633771      -0.530330      -1.251833
      -0.478950      -0.649519      -1.264410
      -0.298659      -0.724444      -1.279056
      -0.105182      -0.750000      -1.294773
       0.088295      -0.724444      -1.310490
       0.268587      -0.649519      -1.325136
       0.423407      -0.530330      -1.337713
       0.542204      -0.375000      -1.347364
       0.616884      -0.194114      -1.353431
       0.521772       0.000000      -1.406327
       0.500242       0.164072      -1.404577
       0.437120       0.316964      -1.399450
       0.336708       0.448254      -1.391293
       0.205849       0.548997      -1.380662
       0.053460       0.612327      -1.368283
      -0.110074       0.633927      -1.354998
      -0.273608       0.612327      -1.341713
      -0.425997       0.548997      -1.329334
      -0.556857       0.448254      -1.318703
      -0.657269       0.316964      -1.310546
      -0.720391       0.164073      -1.305418
      -0.741920      -0.000000      -1.303670
      -0.720391      -0.164073      -1.305418
      -0.657269      -0.316964      -1.310546
      -0.556857      -0.448254      -1.318703
      -0.425997      -0.548997      -1.329334
      -0.273608      -0.612327      -1.341713
      -0.110074      -0.633927      -1.354998
       0.053460      -0.612327      -1.368283
       0.205849      -0.548997      -1.380662
       0.336708      -0.448254      -1.391293
       0.437120      -0.316964      -1.399450
       0.500242      -0.164073      -1.404577
       0.397217       0.000000      -1.446450
       0.379793       0.132782      -1.445035
       0.328709       0.256515      -1.440885
       0.247447       0.362767      -1.434284
       0.141544       0.444297      -1.425681
       0.018217       0.495549      -1.415662
      -0.114129       0.513030      -1.404911
      -0.246475       0.495549      -1.394160
      -0.369802       0.444297      -1.384141
      -0.475705       0.362767      -1.375538
      -0.556967       0.256515      -1.368937
      -0.608051       0.132782      -1.364787
      -0.625475      -0.000000      -1.363371
      -0.608051      -0.132782      -1.364787
      -0.556967      -0.256515      -1.368937
      -0.475705      -0.362767      -1.375538
      -0.369802      -0.444297      -1.384141
      -0.246475      -0.495549      -1.394160
      -0.114129      -0.513030      -1.404911
       0.018217      -0.495549      -1.415662
       0.141544      -0.444297      -1.425681
       0.247447      -0.362767      -1.434284
       0.328709      -0.256515      -1.440885
       0.379793      -0.132782      -1.445035
       0.269639       0.000000      -1.475566
       0.256454       0.100481      -1.474495
       0.217797       0.194114      -1.471355
       0.156303       0.274519      -1.466359
       0.076162       0.336216      -1.459849
      -0.017164       0.375000      -1.452267
      -0.117315       0.388229      -1.444131
      -0.217466       0.375000      -1.435996
      -0.310792       0.336216      -1.428414
      -0.390933       0.274519      -1.421904
      -0.452427       0.194114      -1.416909
      -0.491084       0.100481      -1.413768
      -0.504269      -0.000000      -1.412697
      -0.491084      -0.100481      -1.413768
      -0.452427      -0.194114      -1.416909
      -0.390933      -0.274519      -1.421904
      -0.310792      -0.336216      -1.428414
      -0.217466      -0.375000      -1.435996
      -0.117315      -0.388229      -1.444131
      -0.017164      -0.375000      -1.452267
       0.076162      -0.336216      -1.459849
       0.156303      -0.274519      -1.466359
       0.217797      -0.194114      -1.471355
       0.256454      -0.100481      -1.474495
       0.140009       0.000000      -1.493451
       0.131163       0.067415      -1.492733
       0.105227       0.130236      -1.490626
       0.063969       0.184182      -1.487274
       0.010200       0.225576      -1.482906
      -0.052414       0.251597      -1.477820
      -0.119608       0.260472      -1.472361
      -0.186802       0.251597      -1.466903
      -0.249417       0.225576      -1.461816
      -0.303185       0.184182      -1.457448
      -0.344443       0.130236      -1.454097
      -0.370379       0.067415      -1.451990
      -0.379225      -0.000000      -1.451271
      -0.370379      -0.067415      -1.451990
      -0.344443      -0.130236      -1.454097
      -0.303185      -0.184182      -1.457448
      -0.249417      -0.225576      -1.461816
      -0.186802      -0.251597      -1.466903
      -0.119608      -0.260472      -1.472361
      -0.052414      -0.251597      -1.477820
       0.010200      -0.225576      -1.482906
       0.063969      -0.184182      -1.487274
       0.105227      -0.130236      -1.490626
       0.131163      -0.067415      -1.492733
       0.009313       0.000000      -1.499971
       0.004873       0.033836      -1.499610
      -0.008144       0.065367      -1.498553
      -0.028852       0.092443      -1.496871
      -0.055839       0.113219      -1.494678
      -0.087266       0.126279      -1.492125
      -0.120991       0.130734      -1.489386
      -0.154717       0.126279      -1.486646
      -0.186144       0.113219      -1.484093
      -0.213130       0.092443      -1.481901
      -0.233838       0.065367      -1.480219
      -0.246856       0.033836      -1.479161
      -0.251296      -0.000000      -1.478800
      -0.246856      -0.033836      -1.479161
      -0.233838      -0.065367      -1.480219
      -0.213130      -0.092443      -1.481901
      -0.186144      -0.113219      -1.484093
      -0.154717      -0.126279      -1.486646
      -0.120991      -0.130734      -1.489386
      -0.087266      -0.126279      -1.492125
      -0.055839      -0.113219      -1.494678
      -0.028852      -0.092443      -1.496871
      -0.008144      -0.065367      -1.498553
       0.004873      -0.033836      -1.499610
VERTICES      288     576
 1        0
 1        1
 1        2
 1        3
 1        4
 1        5
 1        6
 1        7
 1        8
 1        9
 1       10
 1       11
 1       12
 1       13
 1       14
 1       15
 1       16
 1       17
 1       18
 1       19
 1       20
 1       21
 1       22
 1       23
 1       24
 1       25
 1       26
 1       27
 1       28
 1       29
 1       30
 1       31
 1       32
 1       33
 1       34
 1       35
 1       36
 1       37
 1       38
 1       39
 1       40
 1       41
 1       42
 1       43
 1       44
 1       45
 1       46
 1       47
 1       48
 1       49
 1       50
 1       51
 1       52
 1       53
 1       54
 1       55
 1       56
 1       57
 1       58
 1       59
 1       60
 1       61
 1       62
 1       63
 1       64
 1       65
 1       66
 1       67
 1       68
 1       69
 1       70
 1       71
 1       72
 1       73
 1       74
 1       75
 1       76
 1       77
 1       78
 1       79
 1       80
 1       81
 1       82
 1       83
 1       84
 1       85
 1       86
 1       87
 1       88
 1       89
 1       90
 1       91
 1       92
 1       93
 1       94
 1       95
 1       96
 1       97
 1       98
 1       99
 1      100
 1      101
 1      102
 1      103
 1      104
 1      105
 1      106
 1      107
 1      108
 1      109
 1      110
 1      111
 1      112
 1      113
 1      114
 1      115
 1      116
 1      117
 1      118
 1      119
 1      120
 1      121
 1      122
 1      123
 1      124
 1      125
 1      126
 1      127
 1      128
 1      129
 1      130
 1      131
 1      132
 1      133
 1      134
 1      135
 1      136
 1      137
 1      138
 1      139
 1      140
 1      141
 1      142
 1      143
 1      144
 1      145
 1      146
 1      147
 1      148
 1      149
 1      150
 1      151
 1      152
 1      153
 1      154
 1      155
 1      156
 1      157
 1      158
 1      159
 1      160
 1      161
 1      162
 1      163
 1      164
 1      165
 1      166
 1      167
 1      168
 1      169
 1      170
 1      171
 1      172
 1      173
 1      174
 1      175
 1      176
 1      177
 1      178
 1      179
 1      180
 1      181
 1      182
 1      183
 1      184
 1      185
 1      186
 1      187
 1      188
 1      189
 1      190
 1      191
 1      192
 1      193
 1      194
 1      195
 1      196
 1      197
 1      198
 1      199
 1      200
 1      201
 1      202
 1      203
 1      204
 1      205
 1      206
 1      207
 1      208
 1      209
 1      210
 1      211
 1      212
 1      213
 1      214
 1      215
 1      216
 1      217
 1      218
 1      219
 1      220
 1      221
 1      222
 1      223
 1      224
 1      225
 1      226
 1      227
 1      228
 1      229
 1      230
 1      231
 1      232
 1      233
 1      234
 1      235
 1      236
 1      237
 1      238
 1      239
 1      240
 1      241
 1      242
 1      243
 1      244
 1      245
 1      246
 1      247
 1      248
 1      249
 1      250
 1      251
 1      252
 1      253
 1      254
 1      255
 1      256
 1      257
 1      258
 1      259
 1      260
 1      261
 1      262
 1      263
 1      264
 1      265
 1      266
 1      267
 1      268
 1      269
 1      270
 1      271
 1      272
 1      273
 1      274
 1      275
 1      276
 1      277
 1      278
 1      279
 1      280
 1      281
 1      282
 1      283
 1      284
 1      285
 1      286
 1      287
POINT_DATA      288
SCALARS hemisphere int 1
LOOKUP_TABLE default
 1
 1
 1
 1
 1
 1
 1
 1
 1
 1
 1
 1
 1
 1
 1
 1
 1
 1
 1
 1
 1
 1
 1
 1
 1
 1
 1
 1
 1
 1
 1
 1
 1
 1
 1
 1
 1
 1
 1
 1
 1
 1
 1
 1
 1
 1
 1
 1
 1
 1
 1
 1
 1
 1
 1
 1
 1
 1
 1
 1
 1
 1
 1
 1
 1
 1
 1
 1
 1
 1
 1
 1
 1
 1
 1
 1
 1
 1
 1
 1
 1
 1
 1
 1
 1
 1
 1
 1
 1
 1
 1
 1
 1
 1
 1
 1
 1
 1
 1
 1
 1
 1
 1
 1
 1
 1
 1
 1
 1
 1
 1
 1
 1
 1
 1
 1
 1
 1
 1
 1
 1
 1
 1
 1
 1
 1
 1
 1
 1
 1
 1
 1
 1
 1
 1
 1
 1
 1
 1
 1
 1
 1
 1
 1
-1
-1
-1
-1
-1
-1
-1
-1
-1
-1
-1
-1
-1
-1
-1
-1
-1
-1
-1
-1
-1
-1
-1
-1
-1
-1
-1
-1
-1
-1
-1
-1
-1
-1
-1
-1
-1
-1
-1
-1
-1
-1
-1
-1
-1
-1
-1
-1
-1
-1
-1
-1
-1
-1
-1
-1
-1
-1
-1
-1
-1
-1
-1
-1
-1
-1
-1
-1
-1
-1
-1
-1
-1
-1
-1
-1
-1
-1
-1
-1
-1
-1
-1
-1
-1
-1
-1
-1
-1
-1
-1
-1
-1
-1
-1
-1
-1
-1
-1
-1
-1
-1
-1
-1
-1
-1
-1
-1
-1
-1
-1
-1
-1
-1
-1
-1
-1
-1
-1
-1
-1
-1
-1
-1
-1
-1
-1
-1
-1
-1
-1
-1
-1
-1
-1
-1
-1
-1
-1
-1
-1
-1
-1
-1
