<?xml version="1.0"?>
<VTKFile type="StructuredGrid" version="0.1" byte_order="LittleEndian" header_type="UInt32" compressor="vtkZLibDataCompressor">
  <StructuredGrid WholeExtent="0 60 0 20 0 20">
  <Piece Extent="0 60 0 20 0 20">
    <PointData Vectors="B_total">
      <DataArray type="Float32" Name="B_total" NumberOfComponents="3" format="ascii" RangeMin="0" RangeMax="56570.041392597">
        -9.0532 -1.0785866 3.2812622 -9.368507 -1.108732 3.3652604
        -9.693376 -1.1405848 3.4498441 -10.028116 -1.1743523 3.5347946
        -10.373087 -1.2102704 3.619867 -10.72869 -1.2486074 3.70479
        -11.09539 -1.2896672 3.789258 -11.47371 -1.3337944 3.8729281
        -11.864249 -1.3813776 3.9554129 -12.267685 -1.4328564 4.0362725
        -12.684782 -1.4887259 4.1150055 -13.116397 -1.5495433 4.191038
        -13.563484 -1.6159351 4.263712 -14.027101 -1.688604 4.3322697
        -14.508399 -1.7683387 4.3958435 -15.008634 -1.8560213 4.4534354
        -15.529143 -1.9526384 4.5039067 -16.071352 -2.0592926 4.5459595
        -16.636744 -2.1772134 4.578128 -17.226845 -2.307773 4.5987663
        -17.84321 -2.4525025 4.606044 -18.487381 -2.6131096 4.5979424
        -19.16087 -2.7915032 4.5722604 -19.865122 -2.9898214 4.526616
        -20.601488 -3.210463 4.4584565 -21.371191 -3.4561286 4.3650594
        -22.175266 -3.7298775 4.243548 -23.014515 -4.035169 4.090879
        -23.889414 -4.3759384 3.9038546 -24.79998 -4.7566595 3.6791306
        -25.74562 -5.182427 3.41326 -26.724909 -5.6590257 3.1027808
        -27.735344 -6.193007 2.7443576 -28.773092 -6.7917576 2.3350239
        -29.832745 -7.4635477 1.8724712 -30.907091 -8.217535 1.3553935
        -31.986938 -9.063694 0.7838267 -33.060905 -10.012569 0.1594199
        -34.11518 -11.074765 -0.51436627 -35.133053 -12.259965 -1.2321317
        -36.094326 -13.575326 -1.9863069 -36.9746 -15.023029 -2.7665806
        -37.74495 -16.596983 -3.5586412 -38.37269 -18.278858 -4.3420615
        -38.824272 -20.034142 -5.0875273 -39.07119 -21.809359 -5.754135
        -39.09888 -23.532001 -6.2881985 -38.917477 -25.114689 -6.6249647
        -38.57147 -26.464245 -6.6942496 -38.144775 -27.494938 -6.4297094
        -37.581646 -28.012224 -5.7502813 -0.07901043 -0.21163082 0.49594498
        -0.08191526 -0.23893929 0.4895153 -0.0786922 -0.26579 0.48358107
        -0.07043648 -0.28987694 0.47906494 -0.05884075 -0.30966473 0.47648263
        -0.045731544 -0.32448387 0.47591257 -0.032681465 -0.334445 0.4770782
        -0.020825863 -0.34014606 0.4795202 -0.010805607 -0.34245157 0.48272026
        -0.0028452873 -0.3422761 0.48622102 -9.104252 -1.008871 3.2903612
        -9.42211 -1.0368197 3.3734095 -9.749764 -1.0663799 3.456925
        -10.087554 -1.0977448 3.5406842 -10.435871 -1.1311344 3.6244378
        -10.795154 -1.1667981 3.7079089 -11.165906 -1.2050196 3.7907867
        -11.548699 -1.2461195 3.8727226 -11.944185 -1.2904612 3.9533212
        -12.353101 -1.3384546 4.0321336 -12.776276 -1.3905632 4.108647
        -13.214641 -1.4473089 4.1822734 -13.669234 -1.5092798 4.252335
        -14.141202 -1.577138 4.3180523 -14.631804 -1.6516272 4.3785257
        -15.142407 -1.7335829 4.432721 -15.674482 -1.8239427 4.479451
        -16.229593 -1.9237581 4.5173607 -16.809383 -2.034208 4.54491
        -17.415562 -2.1566148 4.5603685 -18.049875 -2.292461 4.5618
        -18.71409 -2.4434123 4.54706 -19.409975 -2.6113453 4.513796
        -20.13926 -2.7983768 4.4594474 -20.903624 -3.0069048 4.381243
        -21.704666 -3.2396555 4.2762027 -22.543861 -3.4997528 4.141131
        -23.422516 -3.79077 3.9725957 -24.34168 -4.1168265 3.766921
        -25.302034 -4.4826784 3.520173 -26.30373 -4.893824 3.2281775
        -27.346165 -5.356628 2.886576 -28.427748 -5.8784513 2.4909472
        -29.545626 -6.4677935 2.0369911 -30.695398 -7.1344357 1.5207752
        -31.870855 -7.8895636 0.9390031 -33.063652 -8.745808 0.28925788
        -34.262928 -9.717136 -0.42983246 -35.454617 -10.818402 -1.2184942
        -36.62046 -12.064356 -2.0756953 -37.736523 -13.467811 -2.9987228
        -38.77148 -15.036665 -3.9820726 -39.68523 -16.769606 -5.0151362
        -40.429024 -18.650608 -6.07837 -40.948723 -20.643005 -7.138253
        -41.19265 -22.68454 -8.142258 -41.124542 -24.685776 -9.015958
        -40.740005 -26.534191 -9.6648445 -40.08235 -28.105797 -9.98283
        -39.251774 -29.28347 -9.867045 -38.40248 -29.978436 -9.235996
        -37.72561 -30.148388 -8.045335 -0.11405993 -0.22558212 0.5017104
        -0.1085701 -0.26154137 0.48887777 -0.0957036 -0.29310608 0.4786625
        -0.078279495 -0.31823444 0.47204018 -0.05916691 -0.33622742 0.46910858
        -0.04071331 -0.34751606 0.46932006 -0.024469376 -0.3531828 0.47182322
        -0.01118803 -0.35459375 0.47570705 -0.001019001 -0.35305452 0.48019695
        -9.153959 -0.9362647 3.3004458 -9.474263 -0.9617381 3.3826606
        -9.804579 -0.9887022 3.4652338 -10.145274 -1.017334 3.547936
        -10.49677 -1.047835 3.6305137 -10.859539 -1.080434 3.7126846
        -11.234124 -1.1153904 3.7941332 -11.621141 -1.1529984 3.8745027
        -12.021287 -1.1935915 3.953391 -12.435355 -1.2375463 4.0303397
        -12.864238 -1.2852888 4.1048236 -13.308934 -1.3373002 4.17624
        -13.770561 -1.3941234 4.2438927 -14.250352 -1.456371 4.3069777
        -14.749665 -1.5247326 4.3645654 -15.269979 -1.5999862 4.4155827
        -15.812887 -1.6830066 4.4587955 -16.38009 -1.7747792 4.4927893
        -16.973392 -1.8764133 4.5159554 -17.594673 -1.9891589 4.526473
        -18.24588 -2.114425 4.522302 -18.929008 -2.253805 4.501173
        -19.646076 -2.409104 4.4605813 -20.399118 -2.5823753 4.3977838
        -21.190157 -2.7759602 4.309789 -22.021194 -2.9925573 4.1933546
        -22.894176 -3.23527 4.0449524 -23.81097 -3.5077012 3.8607488
        -24.773277 -3.8140497 3.6365619 -25.782541 -4.159227 3.3678298
        -26.839798 -4.548997 3.0495925 -27.945475 -4.99014 2.6765103
        -29.099154 -5.490648 2.2429338 -30.299316 -6.059945 1.743028
        -31.543053 -6.709141 1.1709248 -32.825768 -7.45129 0.52087164
        -34.14075 -8.301601 -0.21269655 -35.47855 -9.277504 -1.0351813
        -36.825867 -10.398375 -1.9519281 -38.16384 -11.684641 -2.968214
        -39.46545 -13.155863 -4.088723 -40.692356 -14.827326 -5.31583
        -41.79189 -16.704765 -6.645953 -42.695892 -18.777174 -8.063398
        -43.323776 -21.008335 -9.532028 -43.592384 -23.328907 -10.986412
        -43.434036 -25.63219 -12.32585 -42.820984 -27.777382 -13.415436
        -41.790672 -29.60359 -14.098116 -40.46216 -30.9547 -14.21804
        -39.03402 -31.710114 -13.650457 -37.75946 -31.811798 -12.328539
        -31.231806 -26.482708 -8.593104 -0.14765596 -0.2611599 0.49662685
        -0.12782288 -0.30130005 0.47758675 -0.1019783 -0.3320608 0.4649191
        -0.07454586 -0.35289097 0.45865107 -0.04893112 -0.36479187 0.4577241
        -0.027153015 -0.36955643 0.46058178 -0.009994507 -0.36921215 0.46567202
        0.0026159286 -0.3655758 0.4717288 -9.201185 -0.8611289 3.3113341
        -9.523775 -0.88388073 3.3928413 -9.856574 -0.9079805 3.474607
        -10.199976 -0.9335871 3.5563982 -10.554425 -0.96088123 3.6379569
        -10.920427 -0.99006844 3.7189956 -11.29856 -1.0213817 3.7991924
        -11.689477 -1.0550855 3.8781855 -12.093923 -1.0914795 3.9555643
        -12.512738 -1.1309029 4.030861 -12.946871 -1.1737398 4.103539
        -13.397388 -1.2204247 4.172981 -13.865475 -1.2714484 4.2384725
        -14.352449 -1.3273665 4.299185 -14.859761 -1.3888055 4.3541603
        -15.388989 -1.456474 4.402289 -15.941845 -1.5311714 4.44229
        -16.520164 -1.6138014 4.472693 -17.125895 -1.7053845 4.4918194
        -17.761086 -1.8070761 4.4977665 -18.427881 -1.9201851 4.4883904
        -19.128494 -2.046199 4.461301 -19.865202 -2.1868136 4.413845
        -20.640331 -2.3439703 4.3431025 -21.45626 -2.5198991 4.245866
        -22.315407 -2.7171922 4.118627 -23.220213 -2.9388561 3.9575324
        -24.17313 -3.188416 3.7583385 -25.176569 -3.4700222 3.516351
        -26.23281 -3.788589 3.226359 -27.343891 -4.149957 2.8825822
        -28.51143 -4.561103 2.4786365 -29.736425 -5.0303802 2.0075455
        -31.019024 -5.567834 1.4617659 -32.358284 -6.1855526 0.83322155
        -33.751842 -6.89808 0.11325979 -35.195465 -7.7228203 -0.7075145
        -36.68216 -8.680337 -1.6395757 -38.200645 -9.7943325 -2.694932
        -39.732796 -11.090988 -3.887383 -41.249718 -12.597155 -5.2320194
        -42.70668 -14.33672 -6.7429733 -44.037785 -16.324554 -8.428228
        -45.152588 -18.557606 -10.280501 -45.938065 -21.003609 -12.264309
        -46.270157 -23.58942 -14.301357 -46.03759 -26.192808 -16.258968
        -45.177338 -28.643658 -17.948845 -43.713615 -30.739883 -19.143097
        -41.786106 -32.279747 -19.60982 -39.65065 -33.104317 -19.161392
        -37.64399 -33.13659 -17.699347 -36.119755 -32.400932 -15.236914
        -9.618893 -8.5020485 -2.813386 -0.16706753 -0.31703377 0.474061
        -0.12946796 -0.3528614 0.4530182 -0.09096813 -0.3754158 0.44255924
        -0.056261063 -0.38658237 0.44063187 -0.027828217 -0.38917065 0.44452286
        -0.0063285828 -0.38598156 0.45170093 0.008758545 -0.3794031 0.46019006
        -9.244772 -0.78377527 3.322596 -9.569444 -0.8035923 3.4035199
        -9.9045 -0.82459533 3.484615 -10.250353 -0.8469236 3.5656445
        -10.607476 -0.87073535 3.6463454 -10.976399 -0.8962103 3.7264256
        -11.357732 -0.92355275 3.8055587 -11.752164 -0.9529945 3.8833761
        -12.160476 -0.9847983 3.9594603 -12.583557 -1.0192622 4.0333347
        -13.022406 -1.0567238 4.1044526 -13.478145 -1.0975657 4.1721816
        -13.952026 -1.1422209 4.2357903 -14.445441 -1.1911798 4.294429
        -14.959921 -1.2449975 4.3471117 -15.497142 -1.3043027 4.392694
        -16.05892 -1.369807 4.429854 -16.647213 -1.4423167 4.4570675
        -17.264107 -1.522746 4.4725924 -17.911812 -1.6121334 4.4744463
        -18.592646 -1.7116607 4.460393 -19.309036 -1.8226775 4.427925
        -20.063507 -1.9467301 4.374254 -20.858675 -2.0855992 4.29629
        -21.69726 -2.2413437 4.1906204 -22.582088 -2.416375 4.053485
        -23.516104 -2.6135101 3.8807125 -24.502352 -2.836081 3.667663
        -25.54397 -3.0880473 3.4091387 -26.644123 -3.3741465 3.0992851
        -27.805916 -3.7000742 2.731496 -29.032274 -4.0727205 2.2983224
        -30.32578 -4.5004606 1.7914041 -31.688532 -4.993529 1.2013842
        -33.121933 -5.564471 0.51777273 -34.626453 -6.2286944 -0.27132893
        -36.201096 -7.005064 -1.1797317 -37.84241 -7.9164553 -2.2239351
        -39.542503 -8.990054 -3.4240787 -41.28561 -10.257055 -4.804718
        -43.042683 -11.751152 -6.394579 -44.76402 -13.505011 -8.223951
        -46.37088 -15.543776 -10.317933 -47.74875 -17.874802 -12.683788
        -48.74694 -20.473598 -15.292067 -49.190742 -23.267967 -18.053587
        -48.911686 -26.124847 -20.799076 -47.79661 -28.847862 -23.272621
        -45.84606 -31.19386 -25.151306 -43.2205 -32.9128 -26.097479
        -40.247166 -33.803875 -25.834385 -37.371418 -33.769047 -24.21912
        -35.062576 -32.840508 -21.28007 -33.710133 -31.168777 -17.200296
        -0.21255684 -0.3429451 0.46496773 -0.15927124 -0.3818817 0.43330383
        -0.10672855 -0.40398598 0.4182911 -0.061099052 -0.41244698 0.4161272
        -0.025186539 -0.41120243 0.42232895 0.0008068085 -0.4039755 0.43292952
        0.018099785 -0.3936391 0.44504666 -9.2836275 -0.7044862 3.3336527
        -9.610132 -0.72118783 3.4141126 -9.947172 -0.7388976 3.4946687
        -10.295178 -0.7577335 3.5750809 -10.654644 -0.77782965 3.6550827
        -11.026126 -0.7993384 3.7343779 -11.410255 -0.82243305 3.812635
        -11.807756 -0.8473102 3.8894799 -12.219443 -0.87419313 3.9644897
        -12.646243 -0.903335 4.037179 -13.089199 -0.9350233 4.106992
        -13.549484 -0.96958387 4.173283 -14.028409 -1.0073862 4.2353063
        -14.527427 -1.0488496 4.292193 -15.048145 -1.0944493 4.3429313
        -15.59232 -1.1447246 4.386348 -16.161867 -1.2002876 4.4210806
        -16.758846 -1.2618335 4.4455605 -17.385473 -1.3301532 4.4579873
        -18.044096 -1.4061477 4.456309 -18.737204 -1.4908464 4.4382033
        -19.467407 -1.5854292 4.4010625 -20.237463 -1.691255 4.3419704
        -21.050257 -1.8098965 4.257686 -21.908825 -1.9431813 4.144611
        -22.816393 -2.0932648 3.9987488 -23.776373 -2.262681 3.815639
        -24.792393 -2.4544487 3.5902708 -25.868296 -2.6721857 3.3169703
        -27.008131 -2.9202578 2.989274 -28.216084 -3.2039676 2.5997784
        -29.49642 -3.529801 2.139998 -30.853409 -3.9057431 1.6002004
        -32.291237 -4.341687 0.969192 -33.813934 -4.8499584 0.23398817
        -35.425182 -5.4459567 -0.62074924 -37.127876 -6.1489115 -1.613621
        -38.923004 -6.9826617 -2.7678201 -40.80732 -7.9762716 -4.112777
        -42.76911 -9.164158 -5.685674 -44.78119 -10.585039 -7.531779
        -46.791 -12.278852 -9.701825 -48.708477 -14.280323 -12.243839
        -50.394955 -16.608028 -15.186798 -51.65867 -19.248314 -18.51437
        -52.26609 -22.13556 -22.13102 -51.978226 -25.133831 -25.828716
        -50.615738 -28.029457 -29.270779 -48.142605 -30.546469 -32.01368
        -44.737877 -32.39233 -33.580147 -40.813473 -33.327515 -33.5732
        -36.94938 -33.234196 -31.789864 -33.759117 -32.152428 -28.280931
        -31.740627 -30.264538 -23.32455 -22.530388 -20.157816 -12.357618
        -0.18854618 -0.41896248 0.4019909 -0.11929035 -0.43737984 0.38312817
        -0.061447144 -0.44062138 0.38243484 -0.017785072 -0.43384743 0.39292622
        0.012309074 -0.42150497 0.40880108 0.031168938 -0.40686512 0.42604303
        -9.316779 -0.62353706 3.3438802 -9.64483 -0.6369747 3.4239845
        -9.9835415 -0.6512296 3.5041242 -10.333362 -0.66639733 3.5840557
        -10.694798 -0.6825865 3.6635094 -11.068428 -0.69992065 3.742185
        -11.454907 -0.71854025 3.8197482 -11.854982 -0.73860466 3.8958201
        -12.269497 -0.7602952 3.9699717 -12.699412 -0.7838177 4.0417123
        -13.145807 -0.8094057 4.110476 -13.609899 -0.83732456 4.175609
        -14.093041 -0.8678755 4.2363505 -14.596747 -0.90140074 4.2918158
        -15.122684 -0.938289 4.340973 -15.672678 -0.9789819 4.382621
        -16.248726 -1.0239818 4.415367 -16.852983 -1.0738608 4.437603
        -17.487762 -1.1292707 4.447478 -18.155546 -1.1909568 4.442881
        -18.858957 -1.2597734 4.421418 -19.600782 -1.3367025 4.3803916
        -20.383972 -1.4228798 4.31678 -21.211647 -1.5196255 4.227209
        -22.087143 -1.6284804 4.107918 -23.014025 -1.7512732 3.954708
        -23.996134 -1.890163 3.7628603 -25.037636 -2.0477405 3.5270357
        -26.14303 -2.2271292 3.2411385 -27.317183 -2.4321284 2.8981516
        -28.565308 -2.6673918 2.4899507 -29.892967 -2.9386637 2.0070913
        -31.306078 -3.2530916 1.4385564 -32.810925 -3.619637 0.7714052
        -34.41421 -4.04961 -0.009766698 -36.123005 -4.557351 -0.923699
        -37.944386 -5.16106 -1.9938323 -39.88432 -5.88371 -3.2502682
        -41.945114 -6.7539177 -4.732236 -44.120445 -7.806434 -6.490572
        -46.386894 -9.081644 -8.588955 -48.69145 -10.623154 -11.101679
        -50.935318 -12.472043 -14.104511 -52.957466 -14.656178 -17.654634
        -54.524727 -17.17356 -21.756546 -55.34037 -19.970337 -26.31495
        -55.085148 -22.918327 -31.084595 -53.499767 -25.802597 -35.639633
        -50.498577 -28.333712 -39.3946 -46.274544 -30.195795 -41.701572
        -41.333385 -31.12518 -42.01294 -36.410896 -30.991299 -40.050194
        -32.28825 -29.83971 -35.89361 -29.586407 -27.873726 -29.942833
        -28.634115 -25.385027 -22.7709 -0.2130909 -0.4613924 0.35529327
        -0.12556458 -0.47218418 0.33493233 -0.055282593 -0.4677229 0.3386011
        -0.0044937134 -0.45409298 0.3560667 0.028731346 -0.43615007 0.3793869
        0.048088074 -0.41718197 0.403399 -9.343408 -0.54121506 3.3526912
        -9.67269 -0.55127114 3.4325376 -10.012732 -0.56194353 3.5123718
        -10.363993 -0.5733044 3.5919478 -10.726994 -0.5854358 3.6709938
        -11.102329 -0.59843117 3.7492065 -11.49067 -0.6123967 3.8262484
        -11.892784 -0.6274531 3.9017377 -12.309539 -0.6437377 3.9752405
        -12.74192 -0.66140634 4.046261 -13.191035 -0.6806364 4.1142263
        -13.658135 -0.70162934 4.1784754 -14.144615 -0.7246143 4.2382374
        -14.652027 -0.74985164 4.292612 -15.182088 -0.7776378 4.340553
        -15.736685 -0.80830985 4.3808384 -16.317875 -0.8422522 4.4120493
        -16.927889 -0.87990296 4.4325447 -17.569132 -0.921763 4.4404364
        -18.244175 -0.96840584 4.4335656 -18.955763 -1.0204908 4.409479
        -19.706818 -1.0787781 4.36541 -20.500456 -1.1441498 4.2982473
        -21.339996 -1.2176316 4.204512 -22.229012 -1.3004379 4.080312
        -23.171364 -1.3939972 3.9212804 -24.171255 -1.500017 3.722487
        -25.233301 -1.6205518 3.478321 -26.362566 -1.7580948 3.182334
        -27.564625 -1.9156947 2.8270466 -28.845596 -2.097112 2.4037223
        -30.21219 -2.307024 1.9020942 -31.6718 -2.551299 1.3100356
        -33.232635 -2.8373647 0.6130645 -34.903885 -3.1746926 -0.20638132
        -36.695816 -3.5754323 -1.1701349 -38.619564 -4.055201 -2.3061018
        -40.68608 -4.6340017 -3.650877 -42.903423 -5.337167 -5.2530746
        -45.271286 -6.1960735 -7.176877 -47.77128 -7.2481065 -9.504405
        -50.352016 -8.535028 -12.334229 -52.90901 -10.098339 -15.771816
        -55.26256 -11.970073 -19.906284 -57.141594 -14.157438 -24.768654
        -58.187775 -16.621408 -30.27076 -57.999664 -19.253216 -36.13579
        -56.231552 -21.858715 -41.849102 -52.739433 -24.166267 -46.67486
        -47.723778 -25.871359 -49.77746 -41.784855 -26.715338 -50.440033
        -35.822094 -26.56923 -48.298344 -30.793415 -25.478926 -43.46718
        -27.446438 -23.64553 -36.484245 -26.152065 -21.353552 -28.106823
        -1.0553856 -1.0732708 -0.30962753 -0.12262154 -0.50255585 0.2735386
        -0.041202545 -0.48880482 0.28537083 0.015081406 -0.46804762 0.31282806
        0.04985237 -0.44495773 0.34577274 0.068369865 -0.42245626 0.3780303
        -9.362876 -0.4578309 3.359592 -9.693051 -0.46441826 3.4392672
        -10.034057 -0.47141352 3.5188966 -10.38636 -0.4788648 3.598232
        -10.750496 -0.48682687 3.677 -11.127063 -0.49536207 3.7548962
        -11.516751 -0.5045414 3.8315797 -11.920339 -0.5144454 3.9066665
        -12.338713 -0.5251662 3.9797204 -12.772873 -0.536808 4.0502405
        -13.223953 -0.54948986 4.117651 -13.693225 -0.5633469 4.181283
        -14.182114 -0.578533 4.2403584 -14.692201 -0.59522337 4.293969
        -15.225241 -0.6136177 4.341055 -15.78316 -0.6339434 4.3803806
        -16.368063 -0.6564601 4.410507 -16.982237 -0.6814643 4.4297714
        -17.628147 -0.70929575 4.436257 -18.308441 -0.74034417 4.4277687
        -19.025948 -0.77505845 4.4018135 -19.783691 -0.813958 4.355571
        -20.584911 -0.8576465 4.2858677 -21.43307 -0.9068281 4.189146
        -22.331926 -0.9623406 4.0614157 -23.285559 -1.0251715 3.8981872
        -24.298449 -1.0965061 3.6943736 -25.375555 -1.1777766 3.444162
        -26.522379 -1.2707276 3.1408367 -27.745043 -1.3775046 2.7765713
        -29.050371 -1.5007656 2.3421607 -30.445986 -1.6438373 1.8267133
        -31.94046 -1.8109189 1.217231 -33.543552 -2.007362 0.4980346
        -35.266487 -2.2400455 -0.3501587 -37.12219 -2.517865 -1.3516634
        -39.12523 -2.8523624 -2.5380301 -41.290825 -3.2584772 -3.9512157
        -43.63218 -3.7553604 -5.647706 -46.154575 -4.367074 -7.703065
        -48.844765 -5.122798 -10.215433 -51.654137 -6.0559025 -13.304979
        -54.475258 -7.200742 -17.10431 -57.114765 -8.585888 -21.733011
        -59.271015 -10.222219 -27.24938 -60.533363 -12.085678 -33.576767
        -60.427376 -14.097292 -40.41549 -58.52739 -16.108297 -47.174316
        -54.631664 -17.903677 -52.980003 -48.942184 -19.236908 -56.81982
        -42.14225 -19.895433 -57.814102 -35.28034 -19.772726 -55.515507
        -29.475853 -18.907097 -50.07247 -25.589787 -17.46401 -42.15655
        -24.026945 -15.675232 -32.700523 -17.96538 -10.111783 -16.297535
        -0.1088562 -0.5209627 0.20208168 -0.019207 -0.49817133 0.22602081
        0.040065765 -0.4716053 0.26606083 0.074453354 -0.44508123 0.31021404
        0.09076691 -0.42075014 0.35163498 -9.374728 -0.37372243 3.364217
        -9.705442 -0.37678355 3.443799 -10.04703 -0.38003933 3.5233152
        -10.399963 -0.38351348 3.6025164 -10.76478 -0.3872328 3.6811275
        -11.142092 -0.3912281 3.758844 -11.53259 -0.3955343 3.835323
        -11.937065 -0.4001914 3.9101796 -12.356412 -0.40524474 3.982975
        -12.791644 -0.41074625 4.053207 -13.243906 -0.41675493 4.120296
        -13.714485 -0.42333803 4.18357 -14.20482 -0.43057242 4.242246
        -14.716516 -0.4385456 4.295411 -15.251347 -0.44735754 4.3419976
        -15.811264 -0.4571224 4.38076 -16.398403 -0.46797067 4.41025
        -17.01508 -0.48005196 4.4287896 -17.6638 -0.49353793 4.434445
        -18.347254 -0.50862616 4.425001 -19.068327 -0.5255449 4.3979387
        -19.830107 -0.54455894 4.3504057 -20.635902 -0.5659775 4.2791915
        -21.489271 -0.5901609 4.180689 -22.394083 -0.6175429 4.050851
        -23.354555 -0.64863366 3.8851106 -24.375341 -0.684049 3.6782866
        -25.461618 -0.7245358 3.4244404 -26.619162 -0.77100813 3.1166942
        -27.854448 -0.8245937 2.7470021 -29.174746 -0.88669705 2.305871
        -30.58827 -0.9590825 1.7820116 -32.104362 -1.043988 1.1618819
        -33.7338 -1.1442788 0.4290297 -35.48916 -1.2636554 -0.43693364
        -37.385147 -1.4069289 -1.4619421 -39.438644 -1.5803764 -2.6799421
        -41.667847 -1.7921753 -4.1364636 -44.089535 -2.0528831 -5.893284
        -46.71303 -2.3758793 -8.033719 -49.529045 -2.7775629 -10.666984
        -52.49154 -3.2769406 -13.928404 -55.49205 -3.893961 -17.970047
        -58.329033 -4.645872 -22.933971 -60.680958 -5.5406046 -28.899586
        -62.10163 -6.5670266 -35.801205 -62.065254 -7.6832514 -43.325943
        -60.088173 -8.807314 -50.830177 -55.924873 -9.817889 -57.342186
        -49.775394 -10.573241 -61.71906 -42.38066 -10.949462 -62.959385
        -34.896088 -10.884215 -60.553062 -28.557419 -10.400097 -54.673622
        -24.30628 -9.591602 -46.09254 -22.569736 -8.591484 -35.872456
        -23.268251 -7.52954 -25.022223 -0.084991455 -0.52026606 0.12769699
        0.008747101 -0.49102044 0.1665268 0.06812477 -0.46165776 0.22034073
        0.10029602 -0.43456125 0.2760229 0.11333656 -0.4108522 0.32651424
        -9.378695 -0.28925025 3.3663428 -9.709585 -0.28875688 3.445904
        -10.051362 -0.28824273 3.5253925 -10.4045 -0.28770658 3.6045597
        -10.769538 -0.28714734 3.68313 -11.147091 -0.28656378 3.760798
        -11.537853 -0.28595454 3.837221 -11.942616 -0.28531834 3.912013
        -12.362279 -0.28465384 3.984735 -12.797858 -0.2839596 4.054884
        -13.250504 -0.2832342 4.1218796 -13.721506 -0.28247628 4.1850486
        -14.212311 -0.28168443 4.243607 -14.724528 -0.28085738 4.296639
        -15.25994 -0.27999398 4.3430753 -15.820504 -0.2790933 4.3816676
        -16.408367 -0.27815464 4.410964 -17.025856 -0.27717778 4.4292817
        -17.67549 -0.2761632 4.4346814 -18.35997 -0.2751118 4.424942
        -19.082203 -0.2740262 4.3975353 -19.845295 -0.2729097 4.349599
        -20.652582 -0.27176818 4.27791 -21.50765 -0.27060774 4.1788483
        -22.41441 -0.2694434 4.048344 -23.377125 -0.26828957 3.8818088
        -24.40051 -0.26716763 3.6740289 -25.489815 -0.266107 3.419025
        -26.650911 -0.26514655 3.1098647 -27.8904 -0.2643382 2.7384334
        -29.215714 -0.26375043 2.2951388 -30.635275 -0.26347283 1.7685585
        -32.158714 -0.26362333 1.1449664 -33.797173 -0.26435617 0.40764093
        -35.563732 -0.26587328 -0.46418917 -37.47377 -0.26843652 -1.4970318
        -39.54504 -0.2723879 -2.7256927 -41.79687 -0.27817178 -4.1969924
        -44.24744 -0.28635865 -5.974651 -46.907703 -0.2976664 -8.144865
        -49.769974 -0.31296724 -10.820996 -52.78946 -0.33324647 -14.144164
        -55.857613 -0.35948488 -18.273964 -58.77021 -0.3924709 -23.361347
        -61.198574 -0.43253958 -29.494421 -62.683174 -0.47935534 -36.612556
        -62.67861 -0.53168315 -44.398937 -60.67847 -0.5870112 -52.19075
        -56.41941 -0.6409357 -58.978584 -50.09952 -0.6870563 -63.568604
        -42.48088 -0.7185657 -64.91089 -34.757275 -0.7337767 -62.469315
        -28.216812 -0.72767127 -56.427395 -23.826456 -0.70685077 -47.594368
        -22.023943 -0.6729555 -37.083794 -22.718613 -0.63140607 -25.948582
        -0.05438614 -0.49652985 0.060577393 0.038967133 -0.4653387 0.11457825
        0.09579849 -0.43729627 0.18118954 0.12443161 -0.4130823 0.24703789
        0.13373375 -0.39273787 0.30527544 -9.374686 -0.20478778 3.3658936
        -9.705386 -0.20074092 3.4455042 -10.046956 -0.19645777 3.5250497
        -10.399871 -0.19191256 3.6042812 -10.764668 -0.18707597 3.682924
        -11.141957 -0.1819149 3.7606726 -11.532432 -0.17639178 3.8371854
        -11.936879 -0.17046408 3.9120765 -12.356196 -0.16408363 3.984908
        -12.791394 -0.1571958 4.0551777 -13.243619 -0.14973879 4.122306
        -13.714157 -0.14164247 4.185621 -14.204447 -0.13282745 4.24434
        -14.716092 -0.12320358 4.2975497 -15.250866 -0.11266872 4.3441834
        -15.81072 -0.10110685 4.382996 -16.397789 -0.08838615 4.41254
        -17.014389 -0.07435676 4.431137 -17.663021 -0.058847748 4.436854
        -18.34638 -0.041664023 4.427478 -19.067347 -0.02258192 4.4004884
        -19.82901 -0.001344094 4.3530374 -20.634676 0.022347245 4.2819133
        -21.487904 0.04883984 4.1835136 -22.392563 0.07853758 4.053792
        -23.352875 0.1119218 3.888185 -24.373491 0.14956495 3.6815152
        -25.459597 0.19215578 3.4278488 -26.61697 0.24053037 3.1203132
        -27.852104 0.29571372 2.7508678 -29.172287 0.3589748 2.3100255
        -30.585758 0.4318998 1.786504 -32.101906 0.5164941 1.166765
        -33.731567 0.61532044 0.434353 -35.487408 0.731685 -0.4311334
        -37.38427 0.86988676 -1.4556581 -39.43922 1.0355419 -2.6732407
        -41.670704 1.2359736 -4.1295357 -44.09584 1.4806544 -5.8865595
        -46.72439 1.781606 -8.028023 -49.54758 2.1536043 -10.66378
        -52.519905 2.6138492 -13.930144 -55.533302 3.1805513 -17.980608
        -58.386223 3.8696375 -22.959103 -60.756287 4.688637 -28.947227
        -62.195107 5.6273046 -35.881172 -62.173286 6.64627 -43.448765
        -60.202488 7.6683054 -51.00455 -56.032806 8.579997 -57.571404
        -49.862076 9.250859 -61.99756 -42.43284 9.568789 -63.27204
        -34.906002 9.477888 -60.877705 -28.52636 8.999995 -54.987034
        -24.243525 8.228053 -46.37596 -22.487434 7.288588 -36.114716
        -23.178076 6.3020744 -25.219929 -0.02226448 -0.4511323 0.011320114
        0.06680679 -0.42309856 0.07774353 0.1192646 -0.4004848 0.15382576
        0.14386559 -0.38233447 0.22676945 0.1496582 -0.3677547 0.29025984
        -9.362791 -0.12070847 3.3629432 -9.692938 -0.11313812 3.4426758
        -10.033911 -0.1051186 3.5223637 -10.386178 -0.09659959 3.60176
        -10.750273 -0.087524034 3.6805906 -11.126798 -0.07782722 3.7585514
        -11.516437 -0.067435674 3.8353019 -11.919971 -0.056266107 3.9104583
        -12.338284 -0.044224024 3.983584 -12.772378 -0.031202275 4.054179
        -13.223385 -0.017079297 4.121668 -13.692575 -0.0017172117 4.185381
        -14.181373 0.015040493 4.2445416 -14.691359 0.03337134 4.298242
        -15.224285 0.05347711 4.3454227 -15.782081 0.075586915 4.384848
        -16.366846 0.09996134 4.415081 -16.980865 0.12689722 4.4344597
        -17.626604 0.15673299 4.4410677 -18.306707 0.18985577 4.4327135
        -19.024004 0.22670959 4.4069047 -19.781519 0.26780587 4.360823
        -20.582483 0.31373686 4.2913 -21.430365 0.36519337 4.19478
        -22.32892 0.4229833 4.0672793 -23.282234 0.48806494 3.904314
        -24.294792 0.5615805 3.7008038 -25.37156 0.6449039 3.4509447
        -26.518055 0.7397035 3.1480322 -27.740421 0.8480228 2.7842498
        -29.045523 0.97238827 2.3504043 -30.441032 1.1159539 1.8356144
        -31.935616 1.2826966 1.22689 -33.539146 1.4776804 0.5085472
        -35.263016 1.707414 -0.33872283 -37.120415 1.9803221 -1.3392968
        -39.12624 2.3073475 -2.524859 -41.29622 2.7026753 -3.937611
        -43.644157 3.1845179 -5.634481 -46.176155 3.7758071 -7.691773
        -48.879894 4.5044284 -10.208811 -51.70772 5.402401 -13.307579
        -54.55287 6.5029173 -17.123257 -57.22187 7.833905 -21.778801
        -59.411407 9.406521 -27.336308 -60.706837 11.198116 -33.722435
        -60.62706 13.132283 -40.638477 -58.738003 15.064123 -47.48977
        -54.830112 16.784191 -53.393394 -49.101593 18.05328 -57.321358
        -42.238888 18.66623 -58.37712 -35.301052 18.520832 -56.10129
        -29.422642 17.656061 -50.640003 -25.477882 16.236284 -42.67219
        -23.877834 14.489655 -33.14378 -17.814465 9.029821 -16.635973
        0.0060653687 -0.3908434 -0.012407303 0.088157654 -0.37002993 0.061172485
        0.13542366 -0.35574913 0.14170837 0.15631104 -0.3457346 0.2175293
        0.159441 -0.3384087 0.2830162 -9.343284 -0.03737271 3.3577137
        -9.672523 -0.026338201 3.4376454 -10.012515 -0.014646579 3.5175679
        -10.363723 -0.0022235825 3.5972347 -10.726665 0.011015107 3.676374
        -11.101933 0.025165204 3.754684 -11.490203 0.040335335 3.8318257
        -11.892237 0.056648698 3.9074187 -12.308903 0.07424509 3.9810293
        -12.741184 0.09328304 4.052161 -13.190192 0.11394238 4.120244
        -13.657171 0.13642713 4.184614 -14.143516 0.16096872 4.2445025
        -14.650779 0.18782978 4.299011 -15.180674 0.21730849 4.347093
        -15.735087 0.24974343 4.387527 -16.316072 0.28551957 4.4188967
        -16.92586 0.3250749 4.439562 -17.566849 0.36890882 4.4476357
        -18.241611 0.41759163 4.4409623 -18.952892 0.4717771 4.4170933
        -19.703608 0.53221744 4.3732615 -20.496874 0.5997821 4.3063645
        -21.336006 0.67548317 4.212927 -22.224585 0.76050496 4.0890636
        -23.16647 0.85624623 3.9304166 -24.165876 0.9643715 3.7320666
        -25.22743 1.0868781 3.4884148 -26.356216 1.2261832 3.1930258
        -27.557848 1.3852379 2.8384366 -28.838493 1.567676 2.415927