# vtk DataFile Version 3.0
T01 + IGRF magnetic field in GSW coordinates
ASCII
DATASET STRUCTURED_GRID
DIMENSIONS     61    21    21
POINTS    26901 float
     -50.000000     -10.000000     -10.000000
     -49.000000     -10.000000     -10.000000
     -48.000000     -10.000000     -10.000000
     -47.000000     -10.000000     -10.000000
     -46.000000     -10.000000     -10.000000
     -45.000000     -10.000000     -10.000000
     -44.000000     -10.000000     -10.000000
     -43.000000     -10.000000     -10.000000
     -42.000000     -10.000000     -10.000000
     -41.000000     -10.000000     -10.000000
     -40.000000     -10.000000     -10.000000
     -39.000000     -10.000000     -10.000000
     -38.000000     -10.000000     -10.000000
     -37.000000     -10.000000     -10.000000
     -36.000000     -10.000000     -10.000000
     -35.000000     -10.000000     -10.000000
     -34.000000     -10.000000     -10.000000
     -33.000000     -10.000000     -10.000000
     -32.000000     -10.000000     -10.000000
     -31.000000     -10.000000     -10.000000
     -30.000000     -10.000000     -10.000000
     -29.000000     -10.000000     -10.000000
     -28.000000     -10.000000     -10.000000
     -27.000000     -10.000000     -10.000000
     -26.000000     -10.000000     -10.000000
     -25.000000     -10.000000     -10.000000
     -24.000000     -10.000000     -10.000000
     -23.000000     -10.000000     -10.000000
     -22.000000     -10.000000     -10.000000
     -21.000000     -10.000000     -10.000000
     -20.000000     -10.000000     -10.000000
     -19.000000     -10.000000     -10.000000
     -18.000000     -10.000000     -10.000000
     -17.000000     -10.000000     -10.000000
     -16.000000     -10.000000     -10.000000
     -15.000000     -10.000000     -10.000000
     -14.000000     -10.000000     -10.000000
     -13.000000     -10.000000     -10.000000
     -12.000000     -10.000000     -10.000000
     -11.000000     -10.000000     -10.000000
     -10.000000     -10.000000     -10.000000
      -9.000000     -10.000000     -10.000000
      -8.000000     -10.000000     -10.000000
      -7.000000     -10.000000     -10.000000
      -6.000000     -10.000000     -10.000000
      -5.000000     -10.000000     -10.000000
      -4.000000     -10.000000     -10.000000
      -3.000000     -10.000000     -10.000000
      -2.000000     -10.000000     -10.000000
      -1.000000     -10.000000     -10.000000
       0.000000     -10.000000     -10.000000
       1.000000     -10.000000     -10.000000
       2.000000     -10.000000     -10.000000
       3.000000     -10.000000     -10.000000
       4.000000     -10.000000     -10.000000
       5.000000     -10.000000     -10.000000
       6.000000     -10.000000     -10.000000
       7.000000     -10.000000     -10.000000
       8.000000     -10.000000     -10.000000
       9.000000     -10.000000     -10.000000
      10.000000     -10.000000     -10.000000
     -50.000000      -9.000000     -10.000000
     -49.000000      -9.000000     -10.000000
     -48.000000      -9.000000     -10.000000
     -47.000000      -9.000000     -10.000000
     -46.000000      -9.000000     -10.000000
     -45.000000      -9.000000     -10.000000
     -44.000000      -9.000000     -10.000000
     -43.000000      -9.000000     -10.000000
     -42.000000      -9.000000     -10.000000
     -41.000000      -9.000000     -10.000000
     -40.000000      -9.000000     -10.000000
     -39.000000      -9.000000     -10.000000
     -38.000000      -9.000000     -10.000000
     -37.000000      -9.000000     -10.000000
     -36.000000      -9.000000     -10.000000
     -35.000000      -9.000000     -10.000000
     -34.000000      -9.000000     -10.000000
     -33.000000      -9.000000     -10.000000
     -32.000000      -9.000000     -10.000000
     -31.000000      -9.000000     -10.000000
     -30.000000      -9.000000     -10.000000
     -29.000000      -9.000000     -10.000000
     -28.000000      -9.000000     -10.000000
     -27.000000      -9.000000     -10.000000
     -26.000000      -9.000000     -10.000000
     -25.000000      -9.000000     -10.000000
     -24.000000      -9.000000     -10.000000
     -23.000000      -9.000000     -10.000000
     -22.000000      -9.000000     -10.000000
     -21.000000      -9.000000     -10.000000
     -20.000000      -9.000000     -10.000000
     -19.000000      -9.000000     -10.000000
     -18.000000      -9.000000     -10.000000
     -17.000000      -9.000000     -10.000000
     -16.000000      -9.000000     -10.000000
     -15.000000      -9.000000     -10.000000
     -14.000000      -9.000000     -10.000000
     -13.000000      -9.000000     -10.000000
     -12.000000      -9.000000     -10.000000
     -11.000000      -9.000000     -10.000000
     -10.000000      -9.000000     -10.000000
      -9.000000      -9.000000     -10.000000
      -8.000000      -9.000000     -10.000000
      -7.000000      -9.000000     -10.000000
      -6.000000      -9.000000     -10.000000
      -5.000000      -9.000000     -10.000000
      -4.000000      -9.000000     -10.000000
      -3.000000      -9.000000     -10.000000
      -2.000000      -9.000000     -10.000000
      -1.000000      -9.000000     -10.000000
       0.000000      -9.000000     -10.000000
       1.000000      -9.000000     -10.000000
       2.000000      -9.000000     -10.000000
       3.000000      -9.000000     -10.000000
       4.000000      -9.000000     -10.000000
       5.000000      -9.000000     -10.000000
       6.000000      -9.000000     -10.000000
       7.000000      -9.000000     -10.000000
       8.000000      -9.000000     -10.000000
       9.000000      -9.000000     -10.000000
      10.000000      -9.000000     -10.000000
     -50.000000      -8.000000     -10.000000
     -49.000000      -8.000000     -10.000000
     -48.000000      -8.000000     -10.000000
     -47.000000      -8.000000     -10.000000
     -46.000000      -8.000000     -10.000000
     -45.000000      -8.000000     -10.000000
     -44.000000      -8.000000     -10.000000
     -43.000000      -8.000000     -10.000000
     -42.000000      -8.000000     -10.000000
     -41.000000      -8.000000     -10.000000
     -40.000000      -8.000000     -10.000000
     -39.000000      -8.000000     -10.000000
     -38.000000      -8.000000     -10.000000
     -37.000000      -8.000000     -10.000000
     -36.000000      -8.000000     -10.000000
     -35.000000      -8.000000     -10.000000
     -34.000000      -8.000000     -10.000000
     -33.000000      -8.000000     -10.000000
     -32.000000      -8.000000     -10.000000
     -31.000000      -8.000000     -10.000000
     -30.000000      -8.000000     -10.000000
     -29.000000      -8.000000     -10.000000
     -28.000000      -8.000000     -10.000000
     -27.000000      -8.000000     -10.000000
     -26.000000      -8.000000     -10.000000
     -25.000000      -8.000000     -10.000000
     -24.000000      -8.000000     -10.000000
     -23.000000      -8.000000     -10.000000
     -22.000000      -8.000000     -10.000000
     -21.000000      -8.000000     -10.000000
     -20.000000      -8.000000     -10.000000
     -19.000000      -8.000000     -10.000000
     -18.000000      -8.000000     -10.000000
     -17.000000      -8.000000     -10.000000
     -16.000000      -8.000000     -10.000000
     -15.000000      -8.000000     -10.000000
     -14.000000      -8.000000     -10.000000
     -13.000000      -8.000000     -10.000000
     -12.000000      -8.000000     -10.000000
     -11.000000      -8.000000     -10.000000
     -10.000000      -8.000000     -10.000000
      -9.000000      -8.000000     -10.000000
      -8.000000      -8.000000     -10.000000
      -7.000000      -8.000000     -10.000000
      -6.000000      -8.000000     -10.000000
      -5.000000      -8.000000     -10.000000
      -4.000000      -8.000000     -10.000000
      -3.000000      -8.000000     -10.000000
      -2.000000      -8.000000     -10.000000
      -1.000000      -8.000000     -10.000000
       0.000000      -8.000000     -10.000000
       1.000000      -8.000000     -10.000000
       2.000000      -8.000000     -10.000000
       3.000000      -8.000000     -10.000000
       4.000000      -8.000000     -10.000000
       5.000000      -8.000000     -10.000000
       6.000000      -8.000000     -10.000000
       7.000000      -8.000000     -10.000000
       8.000000      -8.000000     -10.000000
       9.000000      -8.000000     -10.000000
      10.000000      -8.000000     -10.000000
     -50.000000      -7.000000     -10.000000
     -49.000000      -7.000000     -10.000000
     -48.000000      -7.000000     -10.000000
     -47.000000      -7.000000     -10.000000
     -46.000000      -7.000000     -10.000000
     -45.000000      -7.000000     -10.000000
     -44.000000      -7.000000     -10.000000
     -43.000000      -7.000000     -10.000000
     -42.000000      -7.000000     -10.000000
     -41.000000      -7.000000     -10.000000
     -40.000000      -7.000000     -10.000000
     -39.000000      -7.000000     -10.000000
     -38.000000      -7.000000     -10.000000
     -37.000000      -7.000000     -10.000000
     -36.000000      -7.000000     -10.000000
     -35.000000      -7.000000     -10.000000
     -34.000000      -7.000000     -10.000000
     -33.000000      -7.000000     -10.000000
     -32.000000      -7.000000     -10.000000
     -31.000000      -7.000000     -10.000000
     -30.000000      -7.000000     -10.000000
     -29.000000      -7.000000     -10.000000
     -28.000000      -7.000000     -10.000000
     -27.000000      -7.000000     -10.000000
     -26.000000      -7.000000     -10.000000
     -25.000000      -7.000000     -10.000000
[...]
POINT_DATA    26901
VECTORS B_total float
  -1.0121325E+01  -1.4668632E+00   3.1922717E+00
  -1.0461040E+01  -1.5070515E+00   3.2797551E+00
  -1.0809816E+01  -1.5487632E+00   3.3679404E+00
  -1.1167869E+01  -1.5921686E+00   3.4565251E+00
  -1.1535451E+01  -1.6374650E+00   3.5451677E+00
  -1.1912861E+01  -1.6848798E+00   3.6334801E+00
  -1.2300451E+01  -1.7346735E+00   3.7210240E+00
  -1.2698631E+01  -1.7871439E+00   3.8073044E+00
  -1.3107878E+01  -1.8426294E+00   3.8917606E+00
  -1.3528743E+01  -1.9015142E+00   3.9737587E+00
  -1.3961853E+01  -1.9642315E+00   4.0525823E+00
  -1.4407926E+01  -2.0312703E+00   4.1274209E+00
  -1.4867760E+01  -2.1031797E+00   4.1973591E+00
  -1.5342248E+01  -2.1805756E+00   4.2613645E+00
  -1.5832369E+01  -2.2641475E+00   4.3182759E+00
  -1.6339184E+01  -2.3546662E+00   4.3667908E+00
  -1.6863829E+01  -2.4529932E+00   4.4054551E+00
  -1.7407505E+01  -2.5600908E+00   4.4326558E+00
  -1.7971455E+01  -2.6770365E+00   4.4466138E+00
  -1.8556953E+01  -2.8050356E+00   4.4453812E+00
  -1.9165274E+01  -2.9454420E+00   4.4268436E+00
  -1.9797665E+01  -3.0997813E+00   4.3887296E+00
  -2.0455311E+01  -3.2697763E+00   4.3286185E+00
  -2.1139301E+01  -3.4573836E+00   4.2439556E+00
  -2.1850588E+01  -3.6648328E+00   4.1320729E+00
  -2.2589928E+01  -3.8946743E+00   3.9901998E+00
  -2.3357817E+01  -4.1498361E+00   3.8155065E+00
  -2.4154398E+01  -4.4336901E+00   3.6051009E+00
  -2.4979342E+01  -4.7501192E+00   3.3560863E+00
  -2.5831682E+01  -5.1036067E+00   3.0656176E+00
  -2.6709623E+01  -5.4993134E+00   2.7309980E+00
  -2.7610281E+01  -5.9431725E+00   2.3498371E+00
  -2.8529406E+01  -6.4419718E+00   1.9202771E+00
  -2.9461077E+01  -7.0034189E+00   1.4413071E+00
  -3.0397404E+01  -7.6361580E+00   9.1314685E-01
  -3.1328245E+01  -8.3496943E+00   3.3769631E-01
  -3.2240948E+01  -9.1541500E+00  -2.8099883E-01
  -3.3120098E+01  -1.0059729E+01  -9.3627882E-01
  -3.3947342E+01  -1.1075779E+01  -1.6184287E+00
  -3.4701118E+01  -1.2209221E+01  -2.3142114E+00
  -3.5356598E+01  -1.3462254E+01  -3.0062380E+00
  -3.5885841E+01  -1.4829201E+01  -3.6719880E+00
  -3.6258831E+01  -1.6292681E+01  -4.2822433E+00
  -3.6445976E+01  -1.7819559E+01  -4.7989573E+00
  -3.6422962E+01  -1.9357565E+01  -5.1729064E+00
  -3.6178318E+01  -2.0833996E+01  -5.3421426E+00
  -3.5723179E+01  -2.2157940E+01  -5.2326040E+00
  -3.5101246E+01  -2.3227222E+01  -4.7621565E+00
  -3.4395630E+01  -2.3939846E+01  -3.8482132E+00
  -6.9882941E+00  -5.3799095E+00  -2.9823542E-01
  -1.0738373E-02  -4.9682331E-01   2.4352360E-01
   2.5784016E-02  -4.9336243E-01   2.4489450E-01
   5.9499264E-02  -4.8223591E-01   2.5565147E-01
   8.7436676E-02  -4.6492100E-01   2.7424645E-01
   1.0776329E-01  -4.4353962E-01   2.9832888E-01
   1.1994791E-01  -4.2037201E-01   3.2529688E-01
   1.2458181E-01  -3.9744473E-01   3.5275829E-01
   1.2299347E-01  -3.7625456E-01   3.7887371E-01
   1.1681890E-01  -3.5770082E-01   4.0243921E-01
   1.0768795E-01  -3.4217072E-01   4.2283612E-01
   9.6997738E-02  -3.2965183E-01   4.3992460E-01
  -1.0163671E+01  -1.3663405E+00   3.1840832E+00
  -1.0504905E+01  -1.4032019E+00   3.2697675E+00
  -1.0855366E+01  -1.4414632E+00   3.3559940E+00
  -1.1215297E+01  -1.4812816E+00   3.4424567E+00
  -1.1584981E+01  -1.5228390E+00   3.5288079E+00
  -1.1964749E+01  -1.5663447E+00   3.6146567E+00
  -1.2354988E+01  -1.6120398E+00   3.6995597E+00
  -1.2756150E+01  -1.6601988E+00   3.7830167E+00
  -1.3168755E+01  -1.7111356E+00   3.8644617E+00
  -1.3593401E+01  -1.7652054E+00   3.9432540E+00
  -1.4030769E+01  -1.8228109E+00   4.0186696E+00
  -1.4481632E+01  -1.8844064E+00   4.0898881E+00
  -1.4946854E+01  -1.9505042E+00   4.1559834E+00
  -1.5427392E+01  -2.0216796E+00   4.2159071E+00
  -1.5924301E+01  -2.0985801E+00   4.2684817E+00
  -1.6438725E+01  -2.1819310E+00   4.3123808E+00
  -1.6971888E+01  -2.2725480E+00   4.3461242E+00
  -1.7525095E+01  -2.3713462E+00   4.3680625E+00
  -1.8099703E+01  -2.4793568E+00   4.3763728E+00
  -1.8697113E+01  -2.5977414E+00   4.3690538E+00
  -1.9318752E+01  -2.7278159E+00   4.3439236E+00
  -1.9966040E+01  -2.8710747E+00   4.2986212E+00
  -2.0640364E+01  -3.0292232E+00   4.2306156E+00
  -2.1343058E+01  -3.2042174E+00   4.1372104E+00
  -2.2075352E+01  -3.3983114E+00   4.0155530E+00
  -2.2838341E+01  -3.6141157E+00   3.8626370E+00
  -2.3632914E+01  -3.8546665E+00   3.6753306E+00
  -2.4459677E+01  -4.1235075E+00   3.4503579E+00
  -2.5318850E+01  -4.4247899E+00   3.1843359E+00
  -2.6210104E+01  -4.7633781E+00   2.8738039E+00
  -2.7132385E+01  -5.1449881E+00   2.5152946E+00
  -2.8083660E+01  -5.5763268E+00   2.1054451E+00
  -2.9060654E+01  -6.0652485E+00   1.6411726E+00
  -3.0058523E+01  -6.6209087E+00   1.1199011E+00
  -3.1070507E+01  -7.2538829E+00   5.3985322E-01
  -3.2087540E+01  -7.9761992E+00  -9.9638820E-02
  -3.3097752E+01  -8.8011913E+00  -7.9779017E-01
  -3.4085907E+01  -9.7430592E+00  -1.5520196E+00
  -3.5032566E+01  -1.0815878E+01  -2.3575220E+00
  -3.5913136E+01  -1.2031919E+01  -3.2066326E+00
  -3.6696720E+01  -1.3398907E+01  -4.0876884E+00
  -3.7345360E+01  -1.4916143E+01  -4.9830575E+00
  -3.7814217E+01  -1.6569431E+01  -5.8659673E+00
  -3.8054092E+01  -1.8325354E+01  -6.6962109E+00
  -3.8017540E+01  -2.0125896E+01  -7.4153605E+00
  -3.7669525E+01  -2.1885384E+01  -7.9431353E+00
  -3.7002140E+01  -2.3491957E+01  -8.1773338E+00
  -3.6050617E+01  -2.4815876E+01  -7.9997525E+00
  -3.4905361E+01  -2.5725105E+01  -7.2890072E+00
  -3.3713924E+01  -2.6106016E+01  -5.9383564E+00
  -1.6779938E+01  -1.3531618E+01  -1.9081354E+00
   3.4032822E-02  -4.9092484E-01   1.6851091E-01
   7.5276375E-02  -4.7777176E-01   1.8445396E-01
   1.0859823E-01  -4.5783806E-01   2.1108150E-01
   1.3175869E-01  -4.3380642E-01   2.4483013E-01
   1.4434814E-01  -4.0843773E-01   2.8182387E-01
   1.4750004E-01  -3.8406563E-01   3.1872368E-01
   1.4320946E-01  -3.6226463E-01   3.5307634E-01
   1.3377714E-01  -3.4387398E-01   3.8341329E-01
   1.2132025E-01  -3.2908916E-01   4.0912744E-01
   1.0755920E-01  -3.1769800E-01   4.3023261E-01
  -1.0195251E+01  -1.2599241E+00   3.1736968E+00
  -1.0537663E+01  -1.2932358E+00   3.2577212E+00
  -1.0889453E+01  -1.3278153E+00   3.3421512E+00
  -1.1250885E+01  -1.3638054E+00   3.4266770E+00
  -1.1622271E+01  -1.4013715E+00   3.5109496E+00
  -1.2003974E+01  -1.4407041E+00   3.5945740E+00
  -1.2396413E+01  -1.4820224E+00   3.6771052E+00
  -1.2800076E+01  -1.5255774E+00   3.7580392E+00
  -1.3215526E+01  -1.5716546E+00   3.8368070E+00
  -1.3643402E+01  -1.6205789E+00   3.9127641E+00
  -1.4084439E+01  -1.6727192E+00   3.9851813E+00
  -1.4539459E+01  -1.7284921E+00   4.0532317E+00
  -1.5009386E+01  -1.7883682E+00   4.1159806E+00
  -1.5495244E+01  -1.8528781E+00   4.1723700E+00
  -1.5998157E+01  -1.9226195E+00   4.2212062E+00
  -1.6519348E+01  -1.9982663E+00   4.2611470E+00
  -1.7060131E+01  -2.0805781E+00   4.2906880E+00
  -1.7621912E+01  -2.1704123E+00   4.3081512E+00
  -1.8206161E+01  -2.2687392E+00   4.3116751E+00
  -1.8814415E+01  -2.3766606E+00   4.2992101E+00
  -1.9448246E+01  -2.4954317E+00   4.2685099E+00
  -2.0109259E+01  -2.6264899E+00   4.2171340E+00
  -2.0799055E+01  -2.7714896E+00   4.1424427E+00
  -2.1519226E+01  -2.9323459E+00   4.0416012E+00
  -2.2271307E+01  -3.1112864E+00   3.9115701E+00
  -2.3056757E+01  -3.3109212E+00   3.7491214E+00
  -2.3876907E+01  -3.5343187E+00   3.5508034E+00
  -2.4732899E+01  -3.7851043E+00   3.3129475E+00
  -2.5625586E+01  -4.0675826E+00   3.0316596E+00
  -2.6555401E+01  -4.3868742E+00   2.7028236E+00
  -2.7522203E+01  -4.7490931E+00   2.3221292E+00
  -2.8525053E+01  -5.1615429E+00   1.8851266E+00
  -2.9561956E+01  -5.6329489E+00   1.3873204E+00
  -3.0629566E+01  -6.1737070E+00   8.2428777E-01
  -3.1722775E+01  -6.7961197E+00   1.9182423E-01
  -3.2834240E+01  -7.5145731E+00  -5.1392668E-01
  -3.3953671E+01  -8.3455486E+00  -1.2963423E+00
  -3.5066837E+01  -9.3073196E+00  -2.1581697E+00
  -3.6154121E+01  -1.0419090E+01  -3.1012049E+00
  -3.7188553E+01  -1.1699267E+01  -4.1255627E+00
  -3.8133446E+01  -1.3162481E+01  -5.2280354E+00
  -3.8940098E+01  -1.4815008E+01  -6.3989916E+00
  -3.9546692E+01  -1.6648447E+01  -7.6172400E+00
  -3.9880123E+01  -1.8631943E+01  -8.8427858E+00
  -3.9863136E+01  -2.0704193E+01  -1.0008392E+01
  -3.9428417E+01  -2.2767517E+01  -1.1012293E+01
  -3.8539970E+01  -2.4687580E+01  -1.1716114E+01
  -3.7217995E+01  -2.6302347E+01  -1.1952221E+01
  -3.5559666E+01  -2.7442255E+01  -1.1543288E+01
  -3.3745426E+01  -2.7959345E+01  -1.0331984E+01
  -3.2022644E+01  -2.7757645E+01  -8.2123699E+00
  -1.6841438E+01  -1.4953283E+01  -2.7959404E+00
   9.3064308E-02  -4.5319748E-01   1.0278225E-01
   1.3183403E-01  -4.3192673E-01   1.3977623E-01
   1.5737057E-01  -4.0701008E-01   1.8565083E-01
   1.6960430E-01  -3.8158226E-01   2.3492861E-01
   1.7038727E-01  -3.5805702E-01   2.8307247E-01
   1.6260624E-01  -3.3793545E-01   3.2689190E-01
   1.4931583E-01  -3.2181692E-01   3.6475170E-01
   1.3317108E-01  -3.0963135E-01   3.9615595E-01
   1.1619425E-01  -3.0091715E-01   4.2140180E-01
  -1.0217688E+01  -1.1480358E+00   3.1609578E+00
  -1.0560991E+01  -1.1776011E+00   3.2434533E+00
  -1.0913805E+01  -1.2082946E+00   3.3262396E+00
  -1.1276415E+01  -1.2402439E+00   3.4090052E+00
  -1.1649160E+01  -1.2735966E+00   3.4913990E+00
  -1.2032428E+01  -1.3085237E+00   3.5730264E+00
  -1.2426669E+01  -1.3452208E+00   3.6534393E+00
  -1.2832405E+01  -1.3839130E+00   3.7321341E+00
  -1.3250237E+01  -1.4248568E+00   3.8085396E+00
  -1.3680843E+01  -1.4683439E+00   3.8820095E+00
  -1.4125004E+01  -1.5147058E+00   3.9518113E+00
  -1.4583592E+01  -1.5643181E+00   4.0171156E+00
  -1.5057586E+01  -1.6176057E+00   4.0769806E+00
  -1.5548068E+01  -1.6750489E+00   4.1303411E+00
  -1.6056231E+01  -1.7371907E+00   4.1759944E+00
  -1.6583374E+01  -1.8046443E+00   4.2125826E+00
  -1.7130896E+01  -1.8781044E+00   4.2385840E+00
  -1.7700298E+01  -1.9583585E+00   4.2522945E+00
  -1.8293163E+01  -2.0463021E+00   4.2518206E+00
  -1.8911158E+01  -2.1429574E+00   4.2350698E+00
  -1.9556009E+01  -2.2494972E+00   4.1997385E+00
  -2.0229502E+01  -2.3672726E+00   4.1433091E+00
  -2.0933460E+01  -2.4978511E+00   4.0630431E+00
  -2.1669727E+01  -2.6430609E+00   3.9559722E+00
  -2.2440168E+01  -2.8050480E+00   3.8188810E+00
  -2.3246626E+01  -2.9863489E+00   3.6483107E+00
  -2.4090904E+01  -3.1899745E+00   3.4405034E+00
  -2.4974718E+01  -3.4195240E+00   3.1913931E+00
  -2.5899624E+01  -3.6793156E+00   2.8965635E+00
  -2.6866922E+01  -3.9745564E+00   2.5512176E+00
  -2.7877533E+01  -4.3115501E+00   2.1501527E+00
  -2.8931803E+01  -4.6979427E+00   1.6877425E+00
  -3.0029312E+01  -5.1430254E+00   1.1579280E+00
  -3.1168587E+01  -5.6580763E+00   5.5420077E-01
  -3.2346699E+01  -6.2567205E+00  -1.3045545E-01
  -3.3558712E+01  -6.9552703E+00  -9.0366894E-01
  -3.4796783E+01  -7.7729292E+00  -1.7738509E+00
  -3.6048752E+01  -8.7317190E+00  -2.7503469E+00
  -3.7296024E+01  -9.8558445E+00  -3.8433809E+00
  -3.8510460E+01  -1.1170101E+01  -5.0633478E+00
  -3.9650501E+01  -1.2696878E+01  -6.4188213E+00
  -4.0656826E+01  -1.4451097E+01  -7.9122725E+00
  -4.1449162E+01  -1.6432751E+01  -9.5326471E+00
  -4.1926559E+01  -1.8617023E+01  -1.1244328E+01
  -4.1974632E+01  -2.0943066E+01  -1.2973396E+01
  -4.1483322E+01  -2.3304243E+01  -1.4594499E+01
  -4.0376312E+01  -2.5544668E+01  -1.5924228E+01
  -3.8648590E+01  -2.7467674E+01  -1.6728823E+01
  -3.6400887E+01  -2.8860531E+01  -1.6752104E+01
  -3.3854355E+01  -2.9533421E+01  -1.5762087E+01
  -3.1330750E+01  -2.9362907E+01  -1.3604018E+01
  -2.9195959E+01  -2.8323126E+01  -1.0238354E+01
  -7.3081522E+00  -7.3388500E+00  -1.5155420E+00
   1.5483570E-01  -3.7903404E-01   6.6399574E-02
   1.8182373E-01  -3.5669327E-01   1.2634182E-01
   1.9268799E-01  -3.3498573E-01   1.8941355E-01
   1.9025421E-01  -3.1609344E-01   2.4969625E-01
   1.7842960E-01  -3.0114079E-01   3.0341220E-01
   1.6105747E-01  -2.9031181E-01   3.4878647E-01
   1.4128399E-01  -2.8319883E-01   3.8562918E-01
   1.2135410E-01  -2.7910757E-01   4.1464901E-01
  -1.0232720E+01  -1.0311397E+00   3.1463947E+00
  -1.0576681E+01  -1.0567838E+00   3.2275002E+00
  -1.0930267E+01  -1.0834099E+00   3.3088012E+00
  -1.1293787E+01  -1.1111292E+00   3.3899868E+00
  -1.1667596E+01  -1.1400709E+00   3.4707055E+00
  -1.2052111E+01  -1.1703849E+00   3.5505617E+00
  -1.2447809E+01  -1.2022424E+00   3.6291084E+00
  -1.2855241E+01  -1.2358407E+00   3.7058411E+00
  -1.3275040E+01  -1.2714046E+00   3.7801890E+00
  -1.3707922E+01  -1.3091906E+00   3.8515058E+00
  -1.4154709E+01  -1.3494904E+00   3.9190578E+00
  -1.4616317E+01  -1.3926347E+00   3.9820127E+00
  -1.5093774E+01  -1.4389985E+00   4.0394268E+00
  -1.5588218E+01  -1.4890065E+00   4.0902290E+00
  -1.6100904E+01  -1.5431402E+00   4.1332088E+00
  -1.6633202E+01  -1.6019452E+00   4.1669989E+00
  -1.7186588E+01  -1.6660409E+00   4.1900616E+00
  -1.7762657E+01  -1.7361329E+00   4.2006721E+00
  -1.8363096E+01  -1.8130268E+00   4.1969109E+00
  -1.8989697E+01  -1.8976465E+00   4.1766443E+00
  -1.9644335E+01  -1.9910579E+00   4.1375198E+00
  -2.0328972E+01  -2.0944965E+00   4.0769506E+00
  -2.1045643E+01  -2.2094038E+00   3.9921050E+00
  -2.1796459E+01  -2.3374734E+00   3.8798909E+00
  -2.2583595E+01  -2.4807069E+00   3.7369263E+00
  -2.3409288E+01  -2.6414900E+00   3.5595319E+00
  -2.4275827E+01  -2.8226788E+00   3.3436561E+00
  -2.5185524E+01  -3.0277159E+00   3.0848420E+00
  -2.6140675E+01  -3.2607765E+00   2.7781582E+00
  -2.7143507E+01  -3.5269489E+00   2.4181237E+00
  -2.8196087E+01  -3.8324647E+00   1.9986224E+00
  -2.9300209E+01  -4.1849871E+00   1.5128067E+00
  -3.0457237E+01  -4.5939608E+00   9.5296115E-01
  -3.1667879E+01  -5.0710311E+00   3.1032112E-01
  -3.2931850E+01  -5.6305237E+00  -4.2522043E-01
  -3.4247238E+01  -6.2899265E+00  -1.2655278E+00
  -3.5609509E+01  -7.0703220E+00  -2.2247810E+00
  -3.7009720E+01  -7.9965725E+00  -3.3200727E+00
  -3.8431690E+01  -9.0970001E+00  -4.5717726E+00
  -3.9847786E+01  -1.0402143E+01  -6.0031219E+00
  -4.1213165E+01  -1.1941942E+01  -7.6380615E+00
  -4.2459015E+01  -1.3740603E+01  -9.4959602E+00
  -4.3486328E+01  -1.5808361E+01  -1.1581707E+01
  -4.4163376E+01  -1.8129723E+01  -1.3870071E+01
  -4.4331886E+01  -2.0648941E+01  -1.6284868E+01
  -4.3827713E+01  -2.3255882E+01  -1.8676996E+01
  -4.2519676E+01  -2.5777817E+01  -2.0809710E+01
  -4.0363754E+01  -2.7985985E+01  -2.2364309E+01
  -3.7457565E+01  -2.9623669E+01  -2.2977455E+01
  -3.4069458E+01  -3.0455872E+01  -2.2311495E+01
  -3.0616537E+01  -3.0327667E+01  -2.0139408E+01
  -2.7584890E+01  -2.9208321E+01  -1.6409683E+01
  -2.5416506E+01  -2.7199680E+01  -1.1257461E+01
   1.7349815E-01  -2.9173470E-01   2.5119781E-03
   2.0042419E-01  -2.7741814E-01   7.6666832E-02
   2.0888710E-01  -2.6512718E-01   1.5312004E-01
   2.0275307E-01  -2.5618935E-01   2.2466469E-01
   1.8693733E-01  -2.5101089E-01   2.8704453E-01
   1.6594791E-01  -2.4922132E-01   3.3866787E-01
   1.4328098E-01  -2.5007248E-01   3.7971222E-01
   1.2125587E-01  -2.5274897E-01   4.1142011E-01
  -1.0242064E+01  -9.0978658E-01   3.1310298E+00
  -1.0586496E+01  -9.3135560E-01   3.2109010E+00
  -1.0940653E+01  -9.5375383E-01   3.2908924E+00
  -1.1304857E+01  -9.7707587E-01   3.3706923E+00
  -1.1679488E+01  -1.0014316E+00   3.4499502E+00
  -1.2064980E+01  -1.0269477E+00   3.5282707E+00
  -1.2461835E+01  -1.0537705E+00   3.6052082E+00
  -1.2870628E+01  -1.0820676E+00   3.6802585E+00
  -1.3292023E+01  -1.1120301E+00   3.7528522E+00
  -1.3726769E+01  -1.1438770E+00   3.8223426E+00
  -1.4175720E+01  -1.1778568E+00   3.8879969E+00
  -1.4639833E+01  -1.2142521E+00   3.9489822E+00
  -1.5120181E+01  -1.2533840E+00   4.0043526E+00
  -1.5617951E+01  -1.2956166E+00   4.0530343E+00
  -1.6134453E+01  -1.3413634E+00   4.0938120E+00
  -1.6671118E+01  -1.3910943E+00   4.1253090E+00
  -1.7229496E+01  -1.4453447E+00   4.1459756E+00
  -1.7811264E+01  -1.5047257E+00   4.1540723E+00
  -1.8418207E+01  -1.5699379E+00   4.1476531E+00
  -1.9052231E+01  -1.6417890E+00   4.1245542E+00
  -1.9715347E+01  -1.7212129E+00   4.0823765E+00
  -2.0409683E+01  -1.8092993E+00   4.0184717E+00
  -2.1137480E+01  -1.9073259E+00   3.9299269E+00
  -2.1901087E+01  -2.0168018E+00   3.8135357E+00
  -2.2702991E+01  -2.1395211E+00   3.6657643E+00
  -2.3545803E+01  -2.2776382E+00   3.4827287E+00
  -2.4432280E+01  -2.4337473E+00   3.2601032E+00
  -2.5365322E+01  -2.6110020E+00   2.9930654E+00
  -2.6347967E+01  -2.8132572E+00   2.6761918E+00
  -2.7383377E+01  -3.0452535E+00   2.3033404E+00
  -2.8474798E+01  -3.3128574E+00   1.8675059E+00
  -2.9625526E+01  -3.6233594E+00   1.3606259E+00
  -3.0838821E+01  -3.9858546E+00   7.7331746E-01
  -3.2117775E+01  -4.4117098E+00   9.4503306E-02
  -3.3465019E+01  -4.9151144E+00  -6.8914056E-01
  -3.4882156E+01  -5.5136852E+00  -1.5939659E+00
  -3.6368641E+01  -6.2290764E+00  -2.6403804E+00
  -3.7919762E+01  -7.0874329E+00  -3.8540118E+00
  -3.9523178E+01  -8.1194229E+00  -5.2667141E+00
  -4.1153542E+01  -9.3594398E+00  -6.9166965E+00
  -4.2764896E+01  -1.0843260E+01  -8.8465414E+00
  -4.4280968E+01  -1.2603217E+01  -1.1097237E+01
  -4.5585220E+01  -1.4659830E+01  -1.3695888E+01
  -4.6514137E+01  -1.7008873E+01  -1.6634886E+01
  -4.6860725E+01  -1.9604357E+01  -1.9842377E+01
  -4.6396690E+01  -2.2339916E+01  -2.3148109E+01
  -4.4921234E+01  -2.5035528E+01  -2.6256319E+01
  -4.2335426E+01  -2.7440311E+01  -2.8745310E+01
  -3.8723785E+01  -2.9262011E+01  -3.0114452E+01
  -3.4405380E+01  -3.0225641E+01  -2.9884918E+01
  -2.9912457E+01  -3.0146641E+01  -2.7729660E+01
  -2.5881521E+01  -2.8988539E+01  -2.3577448E+01
  -2.2891489E+01  -2.6875195E+01  -1.7634769E+01
  -2.1319572E+01  -2.4049747E+01  -1.0309541E+01
   2.0660973E-01  -1.6774368E-01   5.0907135E-02
   2.1191597E-01  -1.7197323E-01   1.3691235E-01
   2.0242119E-01  -1.7931080E-01   2.1582031E-01
   1.8369102E-01  -1.8904209E-01   2.8327703E-01
   1.6060162E-01  -2.0020437E-01   3.3800983E-01
   1.3669205E-01  -2.1186876E-01   3.8076115E-01
   1.1416149E-01  -2.2327471E-01   4.1320682E-01
  -1.0247299E+01  -7.8462094E-01   3.1161454E+00
  -1.0592060E+01  -8.0198240E-01   3.1949625E+00
  -1.0946626E+01  -8.2001466E-01   3.2738404E+00
  -1.1311337E+01  -8.3879489E-01   3.3524690E+00
  -1.1686584E+01  -8.5841221E-01   3.4304974E+00
  -1.2072822E+01  -8.7897015E-01   3.5075319E+00
  -1.2470571E+01  -9.0058750E-01   3.5831275E+00
  -1.2880429E+01  -9.2340076E-01   3.6567822E+00
  -1.3303084E+01  -9.4756639E-01   3.7279270E+00
  -1.3739313E+01  -9.7326255E-01   3.7959166E+00
  -1.4189998E+01  -1.0006925E+00   3.8600190E+00
  -1.4656130E+01  -1.0300875E+00   3.9194014E+00
  -1.5138820E+01  -1.0617102E+00   3.9731171E+00
  -1.5639295E+01  -1.0958595E+00   4.0200906E+00
  -1.6158913E+01  -1.1328752E+00   4.0591021E+00
  -1.6699160E+01  -1.1731442E+00   4.0887694E+00
  -1.7261650E+01  -1.2171084E+00   4.1075344E+00
  -1.7848127E+01  -1.2652736E+00   4.1136417E+00
  -1.8460464E+01  -1.3182213E+00   4.1051278E+00
  -1.9100670E+01  -1.3766240E+00   4.0798001E+00
  -1.9770874E+01  -1.4412626E+00   4.0352221E+00
  -2.0473352E+01  -1.5130514E+00   3.9686933E+00
  -2.1210522E+01  -1.5930666E+00   3.8772273E+00
  -2.1984959E+01  -1.6825857E+00   3.7575204E+00
  -2.2799421E+01  -1.7831342E+00   3.6059051E+00
  -2.3656866E+01  -1.8965546E+00   3.4183176E+00
  -2.4560482E+01  -2.0250769E+00   3.1901877E+00
  -2.5513710E+01  -2.1714282E+00   2.9163630E+00
  -2.6520287E+01  -2.3389649E+00   2.5909755E+00
  -2.7584248E+01  -2.5318449E+00   2.2072814E+00
  -2.8709982E+01  -2.7552536E+00   1.7574501E+00
  -2.9902239E+01  -3.0156927E+00   1.2322804E+00
  -3.1166149E+01  -3.3213520E+00   6.2080991E-01