# vtk DataFile Version 3.0
T01 + IGRF magnetic field in GSW coordinates
ASCII
DATASET STRUCTURED_GRID
DIMENSIONS     61    21    21
POINTS    26901 float
     -50.000000     -10.000000     -10.000000
     -49.000000     -10.000000     -10.000000
     -48.000000     -10.000000     -10.000000
     -47.000000     -10.000000     -10.000000
     -46.000000     -10.000000     -10.000000
     -45.000000     -10.000000     -10.000000
     -44.000000     -10.000000     -10.000000
     -43.000000     -10.000000     -10.000000
     -42.000000     -10.000000     -10.000000
     -41.000000     -10.000000     -10.000000
     -40.000000     -10.000000     -10.000000
     -39.000000     -10.000000     -10.000000
     -38.000000     -10.000000     -10.000000
     -37.000000     -10.000000     -10.000000
     -36.000000     -10.000000     -10.000000
     -35.000000     -10.000000     -10.000000
     -34.000000     -10.000000     -10.000000
     -33.000000     -10.000000     -10.000000
     -32.000000     -10.000000     -10.000000
     -31.000000     -10.000000     -10.000000
     -30.000000     -10.000000     -10.000000
     -29.000000     -10.000000     -10.000000
     -28.000000     -10.000000     -10.000000
     -27.000000     -10.000000     -10.000000
     -26.000000     -10.000000     -10.000000
     -25.000000     -10.000000     -10.000000
     -24.000000     -10.000000     -10.000000
     -23.000000     -10.000000     -10.000000
     -22.000000     -10.000000     -10.000000
     -21.000000     -10.000000     -10.000000
     -20.000000     -10.000000     -10.000000
     -19.000000     -10.000000     -10.000000
     -18.000000     -10.000000     -10.000000
     -17.000000     -10.000000     -10.000000
     -16.000000     -10.000000     -10.000000
     -15.000000     -10.000000     -10.000000
     -14.000000     -10.000000     -10.000000
     -13.000000     -10.000000     -10.000000
     -12.000000     -10.000000     -10.000000
     -11.000000     -10.000000     -10.000000
     -10.000000     -10.000000     -10.000000
      -9.000000     -10.000000     -10.000000
      -8.000000     -10.000000     -10.000000
      -7.000000     -10.000000     -10.000000
      -6.000000     -10.000000     -10.000000
      -5.000000     -10.000000     -10.000000
      -4.000000     -10.000000     -10.000000
      -3.000000     -10.000000     -10.000000
      -2.000000     -10.000000     -10.000000
      -1.000000     -10.000000     -10.000000
       0.000000     -10.000000     -10.000000
       1.000000     -10.000000     -10.000000
       2.000000     -10.000000     -10.000000
       3.000000     -10.000000     -10.000000
       4.000000     -10.000000     -10.000000
       5.000000     -10.000000     -10.000000
       6.000000     -10.000000     -10.000000
       7.000000     -10.000000     -10.000000
       8.000000     -10.000000     -10.000000
       9.000000     -10.000000     -10.000000
      10.000000     -10.000000     -10.000000
     -50.000000      -9.000000     -10.000000
     -49.000000      -9.000000     -10.000000
     -48.000000      -9.000000     -10.000000
     -47.000000      -9.000000     -10.000000
     -46.000000      -9.000000     -10.000000
     -45.000000      -9.000000     -10.000000
     -44.000000      -9.000000     -10.000000
     -43.000000      -9.000000     -10.000000
     -42.000000      -9.000000     -10.000000
     -41.000000      -9.000000     -10.000000
     -40.000000      -9.000000     -10.000000
     -39.000000      -9.000000     -10.000000
     -38.000000      -9.000000     -10.000000
     -37.000000      -9.000000     -10.000000
     -36.000000      -9.000000     -10.000000
     -35.000000      -9.000000     -10.000000
     -34.000000      -9.000000     -10.000000
     -33.000000      -9.000000     -10.000000
     -32.000000      -9.000000     -10.000000
     -31.000000      -9.000000     -10.000000
     -30.000000      -9.000000     -10.000000
     -29.000000      -9.000000     -10.000000
     -28.000000      -9.000000     -10.000000
     -27.000000      -9.000000     -10.000000
     -26.000000      -9.000000     -10.000000
     -25.000000      -9.000000     -10.000000
     -24.000000      -9.000000     -10.000000
     -23.000000      -9.000000     -10.000000
     -22.000000      -9.000000     -10.000000
     -21.000000      -9.000000     -10.000000
     -20.000000      -9.000000     -10.000000
     -19.000000      -9.000000     -10.000000
     -18.000000      -9.000000     -10.000000
     -17.000000      -9.000000     -10.000000
     -16.000000      -9.000000     -10.000000
     -15.000000      -9.000000     -10.000000
     -14.000000      -9.000000     -10.000000
     -13.000000      -9.000000     -10.000000
     -12.000000      -9.000000     -10.000000
     -11.000000      -9.000000     -10.000000
     -10.000000      -9.000000     -10.000000
      -9.000000      -9.000000     -10.000000
      -8.000000      -9.000000     -10.000000
      -7.000000      -9.000000     -10.000000
      -6.000000      -9.000000     -10.000000
      -5.000000      -9.000000     -10.000000
      -4.000000      -9.000000     -10.000000
      -3.000000      -9.000000     -10.000000
      -2.000000      -9.000000     -10.000000
      -1.000000      -9.000000     -10.000000
       0.000000      -9.000000     -10.000000
       1.000000      -9.000000     -10.000000
       2.000000      -9.000000     -10.000000
       3.000000      -9.000000     -10.000000
       4.000000      -9.000000     -10.000000
       5.000000      -9.000000     -10.000000
       6.000000      -9.000000     -10.000000
       7.000000      -9.000000     -10.000000
       8.000000      -9.000000     -10.000000
       9.000000      -9.000000     -10.000000
      10.000000      -9.000000     -10.000000
     -50.000000      -8.000000     -10.000000
     -49.000000      -8.000000     -10.000000
     -48.000000      -8.000000     -10.000000
     -47.000000      -8.000000     -10.000000
     -46.000000      -8.000000     -10.000000
     -45.000000      -8.000000     -10.000000
     -44.000000      -8.000000     -10.000000
     -43.000000      -8.000000     -10.000000
     -42.000000      -8.000000     -10.000000
     -41.000000      -8.000000     -10.000000
     -40.000000      -8.000000     -10.000000
     -39.000000      -8.000000     -10.000000
     -38.000000      -8.000000     -10.000000
     -37.000000      -8.000000     -10.000000
     -36.000000      -8.000000     -10.000000
     -35.000000      -8.000000     -10.000000
     -34.000000      -8.000000     -10.000000
     -33.000000      -8.000000     -10.000000
     -32.000000      -8.000000     -10.000000
     -31.000000      -8.000000     -10.000000
     -30.000000      -8.000000     -10.000000
     -29.000000      -8.000000     -10.000000
     -28.000000      -8.000000     -10.000000
     -27.000000      -8.000000     -10.000000
     -26.000000      -8.000000     -10.000000
     -25.000000      -8.000000     -10.000000
     -24.000000      -8.000000     -10.000000
     -23.000000      -8.000000     -10.000000
     -22.000000      -8.000000     -10.000000
     -21.000000      -8.000000     -10.000000
     -20.000000      -8.000000     -10.000000
     -19.000000      -8.000000     -10.000000
     -18.000000      -8.000000     -10.000000
     -17.000000      -8.000000     -10.000000
     -16.000000      -8.000000     -10.000000
     -15.000000      -8.000000     -10.000000
     -14.000000      -8.000000     -10.000000
     -13.000000      -8.000000     -10.000000
     -12.000000      -8.000000     -10.000000
     -11.000000      -8.000000     -10.000000
     -10.000000      -8.000000     -10.000000
      -9.000000      -8.000000     -10.000000
      -8.000000      -8.000000     -10.000000
      -7.000000      -8.000000     -10.000000
      -6.000000      -8.000000     -10.000000
      -5.000000      -8.000000     -10.000000
      -4.000000      -8.000000     -10.000000
      -3.000000      -8.000000     -10.000000
      -2.000000      -8.000000     -10.000000
      -1.000000      -8.000000     -10.000000
       0.000000      -8.000000     -10.000000
       1.000000      -8.000000     -10.000000
       2.000000      -8.000000     -10.000000
       3.000000      -8.000000     -10.000000
       4.000000      -8.000000     -10.000000
       5.000000      -8.000000     -10.000000
       6.000000      -8.000000     -10.000000
       7.000000      -8.000000     -10.000000
       8.000000      -8.000000     -10.000000
       9.000000      -8.000000     -10.000000
      10.000000      -8.000000     -10.000000
     -50.000000      -7.000000     -10.000000
     -49.000000      -7.000000     -10.000000
     -48.000000      -7.000000     -10.000000
     -47.000000      -7.000000     -10.000000
     -46.000000      -7.000000     -10.000000
     -45.000000      -7.000000     -10.000000
     -44.000000      -7.000000     -10.000000
     -43.000000      -7.000000     -10.000000
     -42.000000      -7.000000     -10.000000
     -41.000000      -7.000000     -10.000000
     -40.000000      -7.000000     -10.000000
     -39.000000      -7.000000     -10.000000
     -38.000000      -7.000000     -10.000000
     -37.000000      -7.000000     -10.000000
     -36.000000      -7.000000     -10.000000
     -35.000000      -7.000000     -10.000000
     -34.000000      -7.000000     -10.000000
     -33.000000      -7.000000     -10.000000
     -32.000000      -7.000000     -10.000000
     -31.000000      -7.000000     -10.000000
     -30.000000      -7.000000     -10.000000
     -29.000000      -7.000000     -10.000000
     -28.000000      -7.000000     -10.000000
     -27.000000      -7.000000     -10.000000
     -26.000000      -7.000000     -10.000000
     -25.000000      -7.000000     -10.000000
[...]
POINT_DATA    26901
VECTORS B_total float
  -9.3217678E+00  -1.2008073E+00   3.2601438E+00
  -9.6430206E+00  -1.2340686E+00   3.3450699E+00
  -9.9736967E+00  -1.2689830E+00   3.4306028E+00
  -1.0314081E+01  -1.3057485E+00   3.5165009E+00
  -1.0664506E+01  -1.3445908E+00   3.6024928E+00
  -1.1025348E+01  -1.3857679E+00   3.6882741E+00
  -1.1397039E+01  -1.4295734E+00   3.7735026E+00
  -1.1780074E+01  -1.4763402E+00   3.8577931E+00
  -1.2175019E+01  -1.5264456E+00   3.9407096E+00
  -1.2582518E+01  -1.5803157E+00   4.0217586E+00
  -1.3003295E+01  -1.6384319E+00   4.1003780E+00
  -1.3438168E+01  -1.7013355E+00   4.1759272E+00
  -1.3888048E+01  -1.7696351E+00   4.2476768E+00
  -1.4353941E+01  -1.8440137E+00   4.3147926E+00
  -1.4836948E+01  -1.9252365E+00   4.3763232E+00
  -1.5338265E+01  -2.0141597E+00   4.4311857E+00
  -1.5859171E+01  -2.1117406E+00   4.4781523E+00
  -1.6401016E+01  -2.2190480E+00   4.5158377E+00
  -1.6965218E+01  -2.3372767E+00   4.5426879E+00
  -1.7553221E+01  -2.4677594E+00   4.5569725E+00
  -1.8166496E+01  -2.6119869E+00   4.5567818E+00
  -1.8806501E+01  -2.7716265E+00   4.5400267E+00
  -1.9474649E+01  -2.9485493E+00   4.5044441E+00
  -2.0172289E+01  -3.1448581E+00   4.4476023E+00
  -2.0900661E+01  -3.3629258E+00   4.3669128E+00
  -2.1660854E+01  -3.6054373E+00   4.2596383E+00
  -2.2453756E+01  -3.8754430E+00   4.1229072E+00
  -2.3279989E+01  -4.1764145E+00   3.9537110E+00
  -2.4139795E+01  -4.5123129E+00   3.7489290E+00
  -2.5032909E+01  -4.8876615E+00   3.5053515E+00
  -2.5958385E+01  -5.3076210E+00   3.2197444E+00
  -2.6914358E+01  -5.7780685E+00   2.8889556E+00
  -2.7897791E+01  -6.3056684E+00   2.5100970E+00
  -2.8904219E+01  -6.8979383E+00   2.0808051E+00
  -2.9927448E+01  -7.5632782E+00   1.5995688E+00
  -3.0959345E+01  -8.3109426E+00   1.0661185E+00
  -3.1989595E+01  -9.1508913E+00   4.8181182E-01
  -3.3005520E+01  -1.0093448E+01  -1.5001589E-01
  -3.3991806E+01  -1.1148611E+01  -8.2377291E-01
  -3.4930191E+01  -1.2324883E+01  -1.5313464E+00
  -3.5799053E+01  -1.3627426E+01  -2.2617707E+00
  -3.6573086E+01  -1.5055406E+01  -3.0005593E+00
  -3.7223484E+01  -1.6598572E+01  -3.7284431E+00
  -3.7719360E+01  -1.8233391E+01  -4.4193978E+00
  -3.8031300E+01  -1.9919472E+01  -5.0382233E+00
  -3.8137650E+01  -2.1597439E+01  -5.5384669E+00
  -3.8033478E+01  -2.3189859E+01  -5.8619900E+00
  -3.7740616E+01  -2.4606363E+01  -5.9415312E+00
  -3.7316036E+01  -2.5753433E+01  -5.7070026E+00
  -3.6855137E+01  -2.6547588E+01  -5.0947919E+00
  -6.5253396E+00  -4.8550053E+00  -1.6298485E-01
  -7.3735833E-02  -8.4249496E-02   6.6461515E-01
  -1.0259271E-01  -1.0151577E-01   6.4191294E-01
  -1.2247133E-01  -1.2535572E-01   6.1483240E-01
  -1.3248301E-01  -1.5277195E-01   5.8639073E-01
  -1.3331318E-01  -1.8084908E-01   5.5927587E-01
  -1.2675762E-01  -2.0724201E-01   5.3546071E-01
  -1.1511230E-01  -2.3043442E-01   5.1601207E-01
  -1.0064983E-01  -2.4970341E-01   5.0120461E-01
  -8.5258007E-02  -2.6498461E-01   4.9072087E-01
  -7.0303917E-02  -2.7661991E-01   4.8391885E-01
  -9.3669777E+00  -1.1198778E+00   3.2603366E+00
  -9.6903734E+00  -1.1505728E+00   3.3439927E+00
  -1.0023403E+01  -1.1828213E+00   3.4281316E+00
  -1.0366385E+01  -1.2168078E+00   3.5125070E+00
  -1.0719680E+01  -1.2527430E+00   3.5968440E+00
  -1.1083700E+01  -1.2908676E+00   3.6808338E+00
  -1.1458920E+01  -1.3314553E+00   3.7641304E+00
  -1.1845879E+01  -1.3748173E+00   3.8463435E+00
  -1.2245193E+01  -1.4213058E+00   3.9270310E+00
  -1.2657562E+01  -1.4713198E+00   4.0056925E+00
  -1.3083775E+01  -1.5253097E+00   4.0817561E+00
  -1.3524715E+01  -1.5837840E+00   4.1545701E+00
  -1.3981375E+01  -1.6473144E+00   4.2233882E+00
  -1.4454845E+01  -1.7165450E+00   4.2873569E+00
  -1.4946323E+01  -1.7921989E+00   4.3455009E+00
  -1.5457111E+01  -1.8750882E+00   4.3967052E+00
  -1.5988605E+01  -1.9661237E+00   4.4397016E+00
  -1.6542292E+01  -2.0663273E+00   4.4730554E+00
  -1.7119730E+01  -2.1768465E+00   4.4951520E+00
  -1.7722538E+01  -2.2989683E+00   4.5041862E+00
  -1.8352367E+01  -2.4341416E+00   4.4981570E+00
  -1.9010887E+01  -2.5839992E+00   4.4748645E+00
  -1.9699760E+01  -2.7503862E+00   4.4319096E+00
  -2.0420612E+01  -2.9353964E+00   4.3666954E+00
  -2.1174997E+01  -3.1414139E+00   4.2764297E+00
  -2.1964384E+01  -3.3711658E+00   4.1581235E+00
  -2.2790092E+01  -3.6277862E+00   4.0085936E+00
  -2.3653242E+01  -3.9148898E+00   3.8244445E+00
  -2.4554655E+01  -4.2366557E+00   3.6020715E+00
  -2.5494720E+01  -4.5979323E+00   3.3376639E+00
  -2.6473242E+01  -5.0043473E+00   3.0272408E+00
  -2.7489185E+01  -5.4624329E+00   2.6667290E+00
  -2.8540443E+01  -5.9797688E+00   2.2521052E+00
  -2.9623533E+01  -6.5651188E+00   1.7795992E+00
  -3.0733290E+01  -7.2285595E+00   1.2459629E+00
  -3.1862549E+01  -7.9815683E+00   6.4876670E-01
  -3.3001774E+01  -8.8369904E+00  -1.3313293E-02
  -3.4138577E+01  -9.8087912E+00  -7.4025148E-01
  -3.5257027E+01  -1.0911407E+01  -1.5304453E+00
  -3.6336662E+01  -1.2158495E+01  -2.3804052E+00
  -3.7351234E+01  -1.3560768E+01  -3.2841229E+00
  -3.8267372E+01  -1.5122717E+01  -4.2316995E+00
  -3.9043892E+01  -1.6838081E+01  -5.2068682E+00
  -3.9632816E+01  -1.8684387E+01  -6.1832304E+00
  -3.9983688E+01  -2.0617392E+01  -7.1195707E+00
  -4.0052219E+01  -2.2567062E+01  -7.9556198E+00
  -3.9813530E+01  -2.4437260E+01  -8.6103640E+00
  -3.9277905E+01  -2.6111477E+01  -8.9853115E+00
  -3.8504696E+01  -2.7465660E+01  -8.9741526E+00
  -3.7608749E+01  -2.8387117E+01  -8.4781818E+00
  -3.6754414E+01  -2.8794836E+01  -7.4236627E+00
  -1.0271209E+01  -8.1369667E+00  -1.1039610E+00
  -1.2543702E-01  -7.8508377E-02   7.0441294E-01
  -1.5102863E-01  -1.0663605E-01   6.6679478E-01
  -1.6323137E-01  -1.3906002E-01   6.2701845E-01
  -1.6317701E-01  -1.7196560E-01   5.8919430E-01
  -1.5356827E-01  -2.0242691E-01   5.5618882E-01
  -1.3771057E-01  -2.2864819E-01   5.2948594E-01
  -1.1872625E-01  -2.4991703E-01   5.0934887E-01
  -9.9083424E-02  -2.6633739E-01   4.9520183E-01
  -8.0469131E-02  -2.7847862E-01   4.8604041E-01
  -9.4083233E+00  -1.0351644E+00   3.2604694E+00
  -9.7336960E+00  -1.0630342E+00   3.3429849E+00
  -1.0068899E+01  -1.0923373E+00   3.4258714E+00
  -1.0414275E+01  -1.1232430E+00   3.5088799E+00
  -1.0770217E+01  -1.1559451E+00   3.5917313E+00
  -1.1137169E+01  -1.1906643E+00   3.6741142E+00
  -1.1515643E+01  -1.2276523E+00   3.7556777E+00
  -1.1906219E+01  -1.2671946E+00   3.8360264E+00
  -1.2309564E+01  -1.3096156E+00   3.9147136E+00
  -1.2726424E+01  -1.3552827E+00   3.9912302E+00
  -1.3157651E+01  -1.4046112E+00   4.0649967E+00
  -1.3604196E+01  -1.4580705E+00   4.1353493E+00
  -1.4067118E+01  -1.5161899E+00   4.2015271E+00
  -1.4547593E+01  -1.5795667E+00   4.2626572E+00
  -1.5046912E+01  -1.6488732E+00   4.3177390E+00
  -1.5566477E+01  -1.7248670E+00   4.3656273E+00
  -1.6107800E+01  -1.8084008E+00   4.4050159E+00
  -1.6672495E+01  -1.9004347E+00   4.4344215E+00
  -1.7262270E+01  -2.0020516E+00   4.4521694E+00
  -1.7878904E+01  -2.1144731E+00   4.4563818E+00
  -1.8524242E+01  -2.2390816E+00   4.4449673E+00
  -1.9200171E+01  -2.3774452E+00   4.4156175E+00
  -1.9908592E+01  -2.5313492E+00   4.3657970E+00
  -2.0651432E+01  -2.7028351E+00   4.2927437E+00
  -2.1430588E+01  -2.8942468E+00   4.1934576E+00
  -2.2247927E+01  -3.1082954E+00   4.0646992E+00
  -2.3105247E+01  -3.3481250E+00   3.9029593E+00
  -2.4004221E+01  -3.6174028E+00   3.7044401E+00
  -2.4946333E+01  -3.9204259E+00   3.4650276E+00
  -2.5932747E+01  -4.2622452E+00   3.1802688E+00
  -2.6964167E+01  -4.6488147E+00   2.8453758E+00
  -2.8040613E+01  -5.0871711E+00   2.4552522E+00
  -2.9161184E+01  -5.5856309E+00   2.0045819E+00
  -3.0323778E+01  -6.1540284E+00   1.4879575E+00
  -3.1524763E+01  -6.8039551E+00   9.0003741E-01
  -3.2758587E+01  -7.5489817E+00   2.3570013E-01
  -3.4017273E+01  -8.4048014E+00  -5.0983948E-01
  -3.5289627E+01  -9.3891287E+00  -1.3409771E+00
  -3.6560036E+01  -1.0521210E+01  -2.2616510E+00
  -3.7806679E+01  -1.1820588E+01  -3.2750576E+00
  -3.8999100E+01  -1.3304772E+01  -4.3827448E+00
  -4.0095463E+01  -1.4985394E+01  -5.5824671E+00
  -4.1040363E+01  -1.6862553E+01  -6.8641567E+00
  -4.1764908E+01  -1.8917511E+01  -8.2036400E+00
  -4.2191299E+01  -2.1104580E+01  -9.5546627E+00
  -4.2244171E+01  -2.3344215E+01  -1.0841036E+01
  -4.1869244E+01  -2.5520485E+01  -1.1952335E+01
  -4.1057468E+01  -2.7486738E+01  -1.2747364E+01
  -3.9867683E+01  -2.9081718E+01  -1.3068345E+01
  -3.8438866E+01  -3.0155636E+01  -1.2765600E+01
  -3.6983074E+01  -3.0599945E+01  -1.1726768E+01
  -3.5756729E+01  -3.0371317E+01  -9.9007139E+00
  -3.1084356E+00  -2.5616169E+00   9.9062920E-02
  -1.8412113E-01  -9.7049713E-02   7.3366737E-01
  -1.9867706E-01  -1.3365364E-01   6.7887402E-01
  -1.9713306E-01  -1.7044353E-01   6.2695789E-01
  -1.8346310E-01  -2.0389175E-01   5.8205652E-01
  -1.6231251E-01  -2.3199940E-01   5.4616117E-01
  -1.3786125E-01  -2.5417805E-01   5.1941395E-01
  -1.1327553E-01  -2.7075386E-01   5.0082707E-01
  -9.0555191E-02  -2.8257322E-01   4.8886895E-01
  -9.4455128E+00  -9.4723964E-01   3.2606423E+00
  -9.7726774E+00  -9.7205794E-01   3.3421502E+00
  -1.0109850E+01  -9.9817109E-01   3.4239316E+00
  -1.0457397E+01  -1.0257314E+00   3.5057340E+00
  -1.0815735E+01  -1.0549135E+00   3.5872753E+00
  -1.1185344E+01  -1.0859159E+00   3.6682398E+00
  -1.1566766E+01  -1.1189657E+00   3.7482743E+00
  -1.1960621E+01  -1.1543205E+00   3.8269782E+00
  -1.2367616E+01  -1.1922725E+00   3.9038994E+00
  -1.2788548E+01  -1.2331538E+00   3.9785225E+00
  -1.3224321E+01  -1.2773402E+00   4.0502591E+00
  -1.3675948E+01  -1.3252566E+00   4.1184349E+00
  -1.4144556E+01  -1.3773836E+00   4.1822739E+00
  -1.4631397E+01  -1.4342642E+00   4.2408862E+00
  -1.5137846E+01  -1.4965117E+00   4.2932477E+00
  -1.5665402E+01  -1.5648180E+00   4.3381839E+00
  -1.6215689E+01  -1.6399655E+00   4.3743520E+00
  -1.6790443E+01  -1.7228382E+00   4.4002233E+00
  -1.7391508E+01  -1.8144363E+00   4.4140658E+00
  -1.8020830E+01  -1.9158947E+00   4.4139323E+00
  -1.8680435E+01  -2.0285034E+00   4.3976464E+00
  -1.9372419E+01  -2.1537342E+00   4.3627915E+00
  -2.0098949E+01  -2.2932744E+00   4.3067031E+00
  -2.0862236E+01  -2.4490669E+00   4.2264571E+00
  -2.1664528E+01  -2.6233594E+00   4.1188512E+00
  -2.2508114E+01  -2.8187754E+00   3.9803915E+00
  -2.3395288E+01  -3.0383832E+00   3.8072479E+00
  -2.4328329E+01  -3.2858005E+00   3.5952146E+00
  -2.5309435E+01  -3.5653124E+00   3.3396578E+00
  -2.6340635E+01  -3.8820176E+00   3.0354600E+00
  -2.7423668E+01  -4.2420115E+00   2.6769791E+00
  -2.8559788E+01  -4.6526031E+00   2.2580276E+00
  -2.9749578E+01  -5.1225886E+00   1.7718723E+00
  -3.0992680E+01  -5.6625628E+00   1.2112631E+00
  -3.2287487E+01  -6.2852869E+00   5.6843972E-01
  -3.3630749E+01  -7.0060682E+00  -1.6491961E-01
  -3.5016899E+01  -7.8430877E+00  -9.9784017E-01
  -3.6437012E+01  -8.8175488E+00  -1.9403023E+00
  -3.7877026E+01  -9.9534016E+00  -3.0034788E+00
  -3.9315018E+01  -1.1276307E+01  -4.1996098E+00
  -4.0717354E+01  -1.2811321E+01  -5.5409684E+00
  -4.2034035E+01  -1.4578689E+01  -7.0369205E+00
  -4.3194283E+01  -1.6587194E+01  -8.6880579E+00
  -4.4104782E+01  -1.8824955E+01  -1.0476698E+01
  -4.4653740E+01  -2.1248257E+01  -1.2354116E+01
  -4.4724632E+01  -2.3770950E+01  -1.4227098E+01
  -4.4221809E+01  -2.6258318E+01  -1.5948709E+01
  -4.3105789E+01  -2.8531471E+01  -1.7320595E+01
  -4.1429478E+01  -3.0386688E+01  -1.8112808E+01
  -3.9360374E+01  -3.1629890E+01  -1.8101974E+01
  -3.7173656E+01  -3.2118729E+01  -1.7119385E+01
  -3.5210426E+01  -3.1797556E+01  -1.5091567E+01
  -3.3811737E+01  -3.0710680E+01  -1.2055876E+01
  -2.2026920E-01  -1.0458755E-01   8.1484699E-01
  -2.3722076E-01  -1.4298248E-01   7.4110413E-01
  -2.3347950E-01  -1.8114948E-01   6.7163467E-01
  -2.1473789E-01  -2.1510983E-01   6.1221075E-01
  -1.8731308E-01  -2.4287128E-01   5.6530762E-01
  -1.5666771E-01  -2.6401138E-01   5.3086519E-01
  -1.2668419E-01  -2.7916765E-01   5.0724483E-01
  -9.9667549E-02  -2.8944349E-01   4.9219656E-01
  -9.4782810E+00  -8.5661590E-01   3.2609091E+00
  -9.8070354E+00  -8.7818789E-01   3.3415461E+00
  -1.0145953E+01  -9.0089965E-01   3.4223716E+00
  -1.0495424E+01  -9.2488539E-01   3.5031312E+00
  -1.0855889E+01  -9.5029825E-01   3.5835392E+00
  -1.1227853E+01  -9.7731310E-01   3.6632786E+00
  -1.1611888E+01  -1.0061294E+00   3.7419903E+00
  -1.2008649E+01  -1.0369741E+00   3.8192723E+00
  -1.2418881E+01  -1.0701045E+00   3.8946662E+00
  -1.2843427E+01  -1.1058134E+00   3.9676507E+00
  -1.3283235E+01  -1.1444325E+00   4.0376301E+00
  -1.3739373E+01  -1.1863376E+00   4.1039190E+00
  -1.4213033E+01  -1.2319542E+00   4.1657300E+00
  -1.4705533E+01  -1.2817641E+00   4.2221551E+00
  -1.5218328E+01  -1.3363125E+00   4.2721500E+00
  -1.5753008E+01  -1.3962166E+00   4.3145132E+00
  -1.6311291E+01  -1.4621754E+00   4.3478680E+00
  -1.6895035E+01  -1.5349820E+00   4.3706427E+00
  -1.7506212E+01  -1.6155367E+00   4.3810549E+00
  -1.8146917E+01  -1.7048657E+00   4.3770909E+00
  -1.8819353E+01  -1.8041402E+00   4.3564949E+00
  -1.9525829E+01  -1.9147046E+00   4.3167515E+00
  -2.0268745E+01  -2.0381074E+00   4.2550731E+00
  -2.1050606E+01  -2.1761439E+00   4.1683812E+00
  -2.1874004E+01  -2.3309050E+00   4.0532823E+00
  -2.2741653E+01  -2.5048506E+00   3.9060388E+00
  -2.3656347E+01  -2.7008801E+00   3.7225080E+00
  -2.4620985E+01  -2.9224424E+00   3.4980860E+00
  -2.5638514E+01  -3.1736631E+00   3.2276232E+00
  -2.6711880E+01  -3.4595051E+00   2.9053392E+00
  -2.7843935E+01  -3.7859712E+00   2.5247271E+00
  -2.9037323E+01  -4.1603599E+00   2.0784659E+00
  -3.0294296E+01  -4.5915804E+00   1.5583339E+00
  -3.1616549E+01  -5.0905523E+00   9.5509654E-01
  -3.3004959E+01  -5.6706686E+00   2.5832266E-01
  -3.4459175E+01  -6.3483315E+00  -5.4392666E-01
  -3.5976910E+01  -7.1434851E+00  -1.4656072E+00
  -3.7552605E+01  -8.0800209E+00  -2.5233593E+00
  -3.9175167E+01  -9.1858339E+00  -3.7372303E+00
  -4.0824203E+01  -1.0492106E+01  -5.1309576E+00
  -4.2464516E+01  -1.2031218E+01  -6.7309895E+00
  -4.4039093E+01  -1.3832520E+01  -8.5629091E+00
  -4.5461723E+01  -1.5915056E+01  -1.0643623E+01
  -4.6612106E+01  -1.8276606E+01  -1.2967877E+01
  -4.7338242E+01  -2.0879602E+01  -1.5489218E+01
  -4.7471870E+01  -2.3635933E+01  -1.8098083E+01
  -4.6861763E+01  -2.6396257E+01  -2.0604452E+01
  -4.5423824E+01  -2.8951509E+01  -2.2736368E+01
  -4.3196545E+01  -3.1054375E+01  -2.4165823E+01
  -4.0379223E+01  -3.2462940E+01  -2.4565998E+01
  -3.7327423E+01  -3.2997101E+01  -2.3687559E+01
  -3.4493969E+01  -3.2587265E+01  -2.1425655E+01
  -3.2330944E+01  -3.1293385E+01  -1.7846455E+01
  -3.1190788E+01  -2.9284702E+01  -1.3159309E+01
  -2.7530003E-01  -1.7464447E-01   8.0956745E-01
  -2.6875114E-01  -2.0953751E-01   7.1990871E-01
  -2.4422932E-01  -2.3977661E-01   6.4412689E-01
  -2.1003532E-01  -2.6354790E-01   5.8518600E-01
  -1.7298508E-01  -2.8075886E-01   5.4254866E-01
  -1.3767815E-01  -2.9229259E-01   5.1374841E-01
  -1.0659885E-01  -2.9943895E-01   4.9562740E-01
  -9.5063934E+00  -7.6375592E-01   3.2612889E+00
  -9.8365173E+00  -7.8191650E-01   3.3411920E+00
  -1.0176942E+01  -8.0104768E-01   3.4212127E+00
  -1.0528072E+01  -8.2126373E-01   3.5010934E+00
  -1.0890371E+01  -8.4269518E-01   3.5805476E+00
  -1.1264365E+01  -8.6549097E-01   3.6592538E+00
  -1.1650655E+01  -8.8982093E-01   3.7368522E+00
  -1.2049923E+01  -9.1587865E-01   3.8129356E+00
  -1.2462949E+01  -9.4388390E-01   3.8870423E+00
  -1.2890611E+01  -9.7408664E-01   3.9586453E+00
  -1.3333903E+01  -1.0067705E+00   4.0271420E+00
  -1.3793940E+01  -1.0422574E+00   4.0918379E+00
  -1.4271965E+01  -1.0809121E+00   4.1519346E+00
  -1.4769363E+01  -1.1231486E+00   4.2065096E+00
  -1.5287654E+01  -1.1694360E+00   4.2544994E+00
  -1.5828506E+01  -1.2203069E+00   4.2946782E+00
  -1.6393732E+01  -1.2763661E+00   4.3256397E+00
  -1.6985285E+01  -1.3383012E+00   4.3457751E+00
  -1.7605267E+01  -1.4068961E+00   4.3532548E+00
  -1.8255901E+01  -1.4830465E+00   4.3460073E+00
  -1.8939558E+01  -1.5677805E+00   4.3217034E+00
  -1.9658731E+01  -1.6622818E+00   4.2777400E+00
  -2.0416056E+01  -1.7679219E+00   4.2112174E+00
  -2.1214298E+01  -1.8862991E+00   4.1189175E+00
  -2.2056393E+01  -2.0192859E+00   3.9972677E+00
  -2.2945438E+01  -2.1691000E+00   3.8423054E+00
  -2.3884733E+01  -2.3383732E+00   3.6495986E+00
  -2.4877769E+01  -2.5302615E+00   3.4141665E+00
  -2.5928246E+01  -2.7485704E+00   3.1303735E+00
  -2.7040024E+01  -2.9979208E+00   2.7917967E+00
  -2.8217113E+01  -3.2839613E+00   2.3910885E+00
  -2.9463581E+01  -3.6136365E+00   1.9198115E+00
  -3.0783484E+01  -3.9955375E+00   1.3682443E+00
  -3.2180756E+01  -4.4403391E+00   7.2511697E-01
  -3.3659050E+01  -4.9613485E+00  -2.2798479E-02
  -3.5221401E+01  -5.5751491E+00  -8.9131314E-01
  -3.6869473E+01  -6.3023081E+00  -1.8997684E+00
  -3.8602104E+01  -7.1680355E+00  -3.0722759E+00
  -4.0412518E+01  -8.2025757E+00  -4.4390931E+00
  -4.2283573E+01  -9.4409046E+00  -6.0375576E+00
  -4.4180580E+01  -1.0921124E+01  -7.9115257E+00
  -4.6041523E+01  -1.2680523E+01  -1.0107435E+01
  -4.7765877E+01  -1.4748182E+01  -1.2664602E+01
  -4.9205563E+01  -1.7133110E+01  -1.5597447E+01
  -5.0163864E+01  -1.9807533E+01  -1.8868444E+01
  -5.0411247E+01  -2.2687595E+01  -2.2354950E+01
  -4.9726559E+01  -2.5617350E+01  -2.5819414E+01
  -4.7964985E+01  -2.8365917E+01  -2.8900131E+01
  -4.5139404E+01  -3.0649429E+01  -3.1142767E+01
  -4.1482071E+01  -3.2182583E+01  -3.2082325E+01
  -3.7445961E+01  -3.2749580E+01  -3.1359598E+01
  -3.3624031E+01  -3.2267555E+01  -2.8827065E+01
  -3.0607969E+01  -3.0811928E+01  -2.4591902E+01
  -2.8845917E+01  -2.8589926E+01  -1.8972219E+01
  -1.5523071E+00  -1.3659534E+00   2.9049301E-01
  -2.9734707E-01  -2.6019859E-01   7.6516914E-01
  -2.6716995E-01  -2.8060055E-01   6.7322922E-01
  -2.2666359E-01  -2.9547501E-01   6.0278320E-01
  -1.8395901E-01  -3.0502892E-01   5.5264282E-01
  -1.4419365E-01  -3.1029797E-01   5.1926994E-01
  -1.0993767E-01  -3.1250095E-01   4.9858069E-01
  -9.5296469E+00  -6.6908324E-01   3.2617793E+00
  -9.8609114E+00  -6.8369609E-01   3.3410854E+00
  -1.0202588E+01  -6.9909853E-01   3.4204516E+00
  -1.0555097E+01  -7.1538347E-01   3.4996183E+00
  -1.0918919E+01  -7.3265725E-01   3.5782962E+00
  -1.1294600E+01  -7.5104129E-01   3.6561627E+00
  -1.1682763E+01  -7.7067435E-01   3.7328551E+00
  -1.2084116E+01  -7.9171395E-01   3.8079631E+00
  -1.2499464E+01  -8.1434000E-01   3.8810225E+00
  -1.2929719E+01  -8.3875638E-01   3.9515009E+00
  -1.3375911E+01  -8.6519545E-01   4.0187893E+00
  -1.3839192E+01  -8.9392072E-01   4.0821877E+00
  -1.4320856E+01  -9.2523146E-01   4.1408858E+00
  -1.4822333E+01  -9.5946771E-01   4.1939497E+00
  -1.5345209E+01  -9.9701571E-01   4.2402992E+00
  -1.5891216E+01  -1.0383145E+00   4.2786894E+00
  -1.6462246E+01  -1.0838639E+00   4.3076878E+00
  -1.7060339E+01  -1.1342337E+00   4.3256526E+00
  -1.7687698E+01  -1.1900756E+00   4.3307152E+00
  -1.8346674E+01  -1.2521361E+00   4.3207526E+00
  -1.9039774E+01  -1.3212755E+00   4.2933769E+00
  -1.9769661E+01  -1.3984876E+00   4.2459049E+00
  -2.0539165E+01  -1.4849298E+00   4.1753402E+00
  -2.1351307E+01  -1.5819563E+00   4.0783420E+00
  -2.2209309E+01  -1.6911616E+00   3.9511836E+00
  -2.3116640E+01  -1.8144462E+00   3.7897015E+00
  -2.4077045E+01  -1.9540774E+00   3.5892043E+00
  -2.5094574E+01  -2.1127913E+00   3.3443763E+00
  -2.6173622E+01  -2.2939117E+00   3.0491390E+00
  -2.7318930E+01  -2.5015066E+00   2.6964860E+00
  -2.8535606E+01  -2.7405901E+00   2.2782917E+00
  -2.9829119E+01  -3.0173874E+00   1.7850721E+00
  -3.1205309E+01  -3.3396821E+00   1.2056808E+00