# vtk DataFile Version 3.0
T01 + IGRF magnetic field in GSW coordinates
ASCII
DATASET STRUCTURED_GRID
DIMENSIONS     61    21    21
POINTS    26901 float
     -50.000000     -10.000000     -10.000000
     -49.000000     -10.000000     -10.000000
     -48.000000     -10.000000     -10.000000
     -47.000000     -10.000000     -10.000000
     -46.000000     -10.000000     -10.000000
     -45.000000     -10.000000     -10.000000
     -44.000000     -10.000000     -10.000000
     -43.000000     -10.000000     -10.000000
     -42.000000     -10.000000     -10.000000
     -41.000000     -10.000000     -10.000000
     -40.000000     -10.000000     -10.000000
     -39.000000     -10.000000     -10.000000
     -38.000000     -10.000000     -10.000000
     -37.000000     -10.000000     -10.000000
     -36.000000     -10.000000     -10.000000
     -35.000000     -10.000000     -10.000000
     -34.000000     -10.000000     -10.000000
     -33.000000     -10.000000     -10.000000
     -32.000000     -10.000000     -10.000000
     -31.000000     -10.000000     -10.000000
     -30.000000     -10.000000     -10.000000
     -29.000000     -10.000000     -10.000000
     -28.000000     -10.000000     -10.000000
     -27.000000     -10.000000     -10.000000
     -26.000000     -10.000000     -10.000000
     -25.000000     -10.000000     -10.000000
     -24.000000     -10.000000     -10.000000
     -23.000000     -10.000000     -10.000000
     -22.000000     -10.000000     -10.000000
     -21.000000     -10.000000     -10.000000
     -20.000000     -10.000000     -10.000000
     -19.000000     -10.000000     -10.000000
     -18.000000     -10.000000     -10.000000
     -17.000000     -10.000000     -10.000000
     -16.000000     -10.000000     -10.000000
     -15.000000     -10.000000     -10.000000
     -14.000000     -10.000000     -10.000000
     -13.000000     -10.000000     -10.000000
     -12.000000     -10.000000     -10.000000
     -11.000000     -10.000000     -10.000000
     -10.000000     -10.000000     -10.000000
      -9.000000     -10.000000     -10.000000
      -8.000000     -10.000000     -10.000000
      -7.000000     -10.000000     -10.000000
      -6.000000     -10.000000     -10.000000
      -5.000000     -10.000000     -10.000000
      -4.000000     -10.000000     -10.000000
      -3.000000     -10.000000     -10.000000
      -2.000000     -10.000000     -10.000000
      -1.000000     -10.000000     -10.000000
       0.000000     -10.000000     -10.000000
       1.000000     -10.000000     -10.000000
       2.000000     -10.000000     -10.000000
       3.000000     -10.000000     -10.000000
       4.000000     -10.000000     -10.000000
       5.000000     -10.000000     -10.000000
       6.000000     -10.000000     -10.000000
       7.000000     -10.000000     -10.000000
       8.000000     -10.000000     -10.000000
       9.000000     -10.000000     -10.000000
      10.000000     -10.000000     -10.000000
     -50.000000      -9.000000     -10.000000
     -49.000000      -9.000000     -10.000000
     -48.000000      -9.000000     -10.000000
     -47.000000      -9.000000     -10.000000
     -46.000000      -9.000000     -10.000000
     -45.000000      -9.000000     -10.000000
     -44.000000      -9.000000     -10.000000
     -43.000000      -9.000000     -10.000000
     -42.000000      -9.000000     -10.000000
     -41.000000      -9.000000     -10.000000
     -40.000000      -9.000000     -10.000000
     -39.000000      -9.000000     -10.000000
     -38.000000      -9.000000     -10.000000
     -37.000000      -9.000000     -10.000000
     -36.000000      -9.000000     -10.000000
     -35.000000      -9.000000     -10.000000
     -34.000000      -9.000000     -10.000000
     -33.000000      -9.000000     -10.000000
     -32.000000      -9.000000     -10.000000
     -31.000000      -9.000000     -10.000000
     -30.000000      -9.000000     -10.000000
     -29.000000      -9.000000     -10.000000
     -28.000000      -9.000000     -10.000000
     -27.000000      -9.000000     -10.000000
     -26.000000      -9.000000     -10.000000
     -25.000000      -9.000000     -10.000000
     -24.000000      -9.000000     -10.000000
     -23.000000      -9.000000     -10.000000
     -22.000000      -9.000000     -10.000000
     -21.000000      -9.000000     -10.000000
     -20.000000      -9.000000     -10.000000
     -19.000000      -9.000000     -10.000000
     -18.000000      -9.000000     -10.000000
     -17.000000      -9.000000     -10.000000
     -16.000000      -9.000000     -10.000000
     -15.000000      -9.000000     -10.000000
     -14.000000      -9.000000     -10.000000
     -13.000000      -9.000000     -10.000000
     -12.000000      -9.000000     -10.000000
     -11.000000      -9.000000     -10.000000
     -10.000000      -9.000000     -10.000000
      -9.000000      -9.000000     -10.000000
      -8.000000      -9.000000     -10.000000
      -7.000000      -9.000000     -10.000000
      -6.000000      -9.000000     -10.000000
      -5.000000      -9.000000     -10.000000
      -4.000000      -9.000000     -10.000000
      -3.000000      -9.000000     -10.000000
      -2.000000      -9.000000     -10.000000
      -1.000000      -9.000000     -10.000000
       0.000000      -9.000000     -10.000000
       1.000000      -9.000000     -10.000000
       2.000000      -9.000000     -10.000000
       3.000000      -9.000000     -10.000000
       4.000000      -9.000000     -10.000000
       5.000000      -9.000000     -10.000000
       6.000000      -9.000000     -10.000000
       7.000000      -9.000000     -10.000000
       8.000000      -9.000000     -10.000000
       9.000000      -9.000000     -10.000000
      10.000000      -9.000000     -10.000000
     -50.000000      -8.000000     -10.000000
     -49.000000      -8.000000     -10.000000
     -48.000000      -8.000000     -10.000000
     -47.000000      -8.000000     -10.000000
     -46.000000      -8.000000     -10.000000
     -45.000000      -8.000000     -10.000000
     -44.000000      -8.000000     -10.000000
     -43.000000      -8.000000     -10.000000
     -42.000000      -8.000000     -10.000000
     -41.000000      -8.000000     -10.000000
     -40.000000      -8.000000     -10.000000
     -39.000000      -8.000000     -10.000000
     -38.000000      -8.000000     -10.000000
     -37.000000      -8.000000     -10.000000
     -36.000000      -8.000000     -10.000000
     -35.000000      -8.000000     -10.000000
     -34.000000      -8.000000     -10.000000
     -33.000000      -8.000000     -10.000000
     -32.000000      -8.000000     -10.000000
     -31.000000      -8.000000     -10.000000
     -30.000000      -8.000000     -10.000000
     -29.000000      -8.000000     -10.000000
     -28.000000      -8.000000     -10.000000
     -27.000000      -8.000000     -10.000000
     -26.000000      -8.000000     -10.000000
     -25.000000      -8.000000     -10.000000
     -24.000000      -8.000000     -10.000000
     -23.000000      -8.000000     -10.000000
     -22.000000      -8.000000     -10.000000
     -21.000000      -8.000000     -10.000000
     -20.000000      -8.000000     -10.000000
     -19.000000      -8.000000     -10.000000
     -18.000000      -8.000000     -10.000000
     -17.000000      -8.000000     -10.000000
     -16.000000      -8.000000     -10.000000
     -15.000000      -8.000000     -10.000000
     -14.000000      -8.000000     -10.000000
     -13.000000      -8.000000     -10.000000
     -12.000000      -8.000000     -10.000000
     -11.000000      -8.000000     -10.000000
     -10.000000      -8.000000     -10.000000
      -9.000000      -8.000000     -10.000000
      -8.000000      -8.000000     -10.000000
      -7.000000      -8.000000     -10.000000
      -6.000000      -8.000000     -10.000000
      -5.000000      -8.000000     -10.000000
      -4.000000      -8.000000     -10.000000
      -3.000000      -8.000000     -10.000000
      -2.000000      -8.000000     -10.000000
      -1.000000      -8.000000     -10.000000
       0.000000      -8.000000     -10.000000
       1.000000      -8.000000     -10.000000
       2.000000      -8.000000     -10.000000
       3.000000      -8.000000     -10.000000
       4.000000      -8.000000     -10.000000
       5.000000      -8.000000     -10.000000
       6.000000      -8.000000     -10.000000
       7.000000      -8.000000     -10.000000
       8.000000      -8.000000     -10.000000
       9.000000      -8.000000     -10.000000
      10.000000      -8.000000     -10.000000
     -50.000000      -7.000000     -10.000000
     -49.000000      -7.000000     -10.000000
     -48.000000      -7.000000     -10.000000
     -47.000000      -7.000000     -10.000000
     -46.000000      -7.000000     -10.000000
     -45.000000      -7.000000     -10.000000
     -44.000000      -7.000000     -10.000000
     -43.000000      -7.000000     -10.000000
     -42.000000      -7.000000     -10.000000
     -41.000000      -7.000000     -10.000000
     -40.000000      -7.000000     -10.000000
     -39.000000      -7.000000     -10.000000
     -38.000000      -7.000000     -10.000000
     -37.000000      -7.000000     -10.000000
     -36.000000      -7.000000     -10.000000
     -35.000000      -7.000000     -10.000000
     -34.000000      -7.000000     -10.000000
     -33.000000      -7.000000     -10.000000
     -32.000000      -7.000000     -10.000000
     -31.000000      -7.000000     -10.000000
     -30.000000      -7.000000     -10.000000
     -29.000000      -7.000000     -10.000000
     -28.000000      -7.000000     -10.000000
     -27.000000      -7.000000     -10.000000
     -26.000000      -7.000000     -10.000000
     -25.000000      -7.000000     -10.000000
[...]
POINT_DATA    26901
VECTORS B_total float
  -9.6389971E+00  -1.3198513E+00   3.2347453E+00
  -9.9675550E+00  -1.3561805E+00   3.3206778E+00
  -1.0305395E+01  -1.3941061E+00   3.4072437E+00
  -1.0652780E+01  -1.4338145E+00   3.4941757E+00
  -1.1010006E+01  -1.4755201E+00   3.5811715E+00
  -1.1377423E+01  -1.5194682E+00   3.6678915E+00
  -1.1755432E+01  -1.5659395E+00   3.7539527E+00
  -1.2144493E+01  -1.6152529E+00   3.8389230E+00
  -1.2545137E+01  -1.6677709E+00   3.9223130E+00
  -1.2957973E+01  -1.7239033E+00   4.0035691E+00
  -1.3383685E+01  -1.7841132E+00   4.0820642E+00
  -1.3823051E+01  -1.8489221E+00   4.1570845E+00
  -1.4276938E+01  -1.9189162E+00   4.2278199E+00
  -1.4746305E+01  -1.9947534E+00   4.2933512E+00
  -1.5232200E+01  -2.0771704E+00   4.3526373E+00
  -1.5735765E+01  -2.1669927E+00   4.4044995E+00
  -1.6258217E+01  -2.2651410E+00   4.4476118E+00
  -1.6800850E+01  -2.3726463E+00   4.4804883E+00
  -1.7365000E+01  -2.4906609E+00   4.5014758E+00
  -1.7952047E+01  -2.6204724E+00   4.5087452E+00
  -1.8563375E+01  -2.7635245E+00   4.5002952E+00
  -1.9200356E+01  -2.9214377E+00   4.4739494E+00
  -1.9864305E+01  -3.0960362E+00   4.4273672E+00
  -2.0556469E+01  -3.2893810E+00   4.3580532E+00
  -2.1277960E+01  -3.5038075E+00   4.2633672E+00
  -2.2029722E+01  -3.7419693E+00   4.1405425E+00
  -2.2812489E+01  -4.0069046E+00   3.9866924E+00
  -2.3626656E+01  -4.3020797E+00   3.7988350E+00
  -2.4472214E+01  -4.6314688E+00   3.5739129E+00
  -2.5348572E+01  -4.9996271E+00   3.3088377E+00
  -2.6254379E+01  -5.4117708E+00   3.0005701E+00
  -2.7187275E+01  -5.8738556E+00   2.6462555E+00
  -2.8143627E+01  -6.3926539E+00   2.2434285E+00
  -2.9118221E+01  -6.9758058E+00   1.7903017E+00
  -3.0103992E+01  -7.6318407E+00   1.2861340E+00
  -3.1091736E+01  -8.3701096E+00   7.3165900E-01
  -3.2069881E+01  -9.2005739E+00   1.2952948E-01
  -3.3024284E+01  -1.0133357E+01  -5.1526046E-01
  -3.3937984E+01  -1.1177904E+01  -1.1949863E+00
  -3.4790997E+01  -1.2341616E+01  -1.8988203E+00
  -3.5560097E+01  -1.3627766E+01  -2.6123495E+00
  -3.6218872E+01  -1.5032654E+01  -3.3167818E+00
  -3.6738396E+01  -1.6542034E+01  -3.9876435E+00
  -3.7089291E+01  -1.8127293E+01  -4.5928636E+00
  -3.7245972E+01  -1.9742167E+01  -5.0906744E+00
  -3.7193432E+01  -2.1321257E+01  -5.4280448E+00
  -3.6936333E+01  -2.2781776E+01  -5.5410771E+00
  -3.6508526E+01  -2.4029705E+01  -5.3584523E+00
  -3.5980179E+01  -2.4970257E+01  -4.8084092E+00
  -3.5459209E+01  -2.5521103E+01  -3.8280649E+00
   3.9215267E-02  -9.4621658E-02   6.9803905E-01
  -4.5356750E-03  -8.6820602E-02   6.9532681E-01
  -4.6370745E-02  -9.0514183E-02   6.8233490E-01
  -8.1821918E-02  -1.0438919E-01   6.6095209E-01
  -1.0790730E-01  -1.2584019E-01   6.3412428E-01
  -1.2352085E-01  -1.5164757E-01   6.0510874E-01
  -1.2925148E-01  -1.7872715E-01   5.7680702E-01
  -1.2684250E-01  -2.0464039E-01   5.5133247E-01
  -1.1856127E-01  -2.2777319E-01   5.2990210E-01
  -1.0667324E-01  -2.4731636E-01   5.1292241E-01
  -9.3091011E-02  -2.6310635E-01   5.0021410E-01
  -9.6806831E+00  -1.2295772E+00   3.2294927E+00
  -1.0011048E+01  -1.2629964E+00   3.3138936E+00
  -1.0350890E+01  -1.2979039E+00   3.3987916E+00
  -1.0700494E+01  -1.3344731E+00   3.4839149E+00
  -1.1060193E+01  -1.3729036E+00   3.5689583E+00
  -1.1430369E+01  -1.4134237E+00   3.6535788E+00
  -1.1811463E+01  -1.4562943E+00   3.7373886E+00
  -1.2203978E+01  -1.5018131E+00   3.8199511E+00
  -1.2608493E+01  -1.5503173E+00   3.9007723E+00
  -1.3025669E+01  -1.6021901E+00   3.9792919E+00
  -1.3456252E+01  -1.6578640E+00   4.0548744E+00
  -1.3901081E+01  -1.7178272E+00   4.1267953E+00
  -1.4361096E+01  -1.7826303E+00   4.1942325E+00
  -1.4837336E+01  -1.8528918E+00   4.2562494E+00
  -1.5330937E+01  -1.9293073E+00   4.3117824E+00
  -1.5843139E+01  -2.0126574E+00   4.3596268E+00
  -1.6375267E+01  -2.1038184E+00   4.3984218E+00
  -1.6928730E+01  -2.2037745E+00   4.4266400E+00
  -1.7505005E+01  -2.3136318E+00   4.4425735E+00
  -1.8105625E+01  -2.4346344E+00   4.4443307E+00
  -1.8732145E+01  -2.5681865E+00   4.4298272E+00
  -1.9386135E+01  -2.7158766E+00   4.3967881E+00
  -2.0069147E+01  -2.8795080E+00   4.3427458E+00
  -2.0782686E+01  -3.0611382E+00   4.2650509E+00
  -2.1528179E+01  -3.2631216E+00   4.1608658E+00
  -2.2306936E+01  -3.4881644E+00   4.0271773E+00
  -2.3120106E+01  -3.7394042E+00   3.8607888E+00
  -2.3968586E+01  -4.0204668E+00   3.6583252E+00
  -2.4852930E+01  -4.3355722E+00   3.4162364E+00
  -2.5773207E+01  -4.6896362E+00   3.1308177E+00
  -2.6728809E+01  -5.0883904E+00   2.7982626E+00
  -2.7718224E+01  -5.5385160E+00   2.4147565E+00
  -2.8738750E+01  -6.0477834E+00   1.9766412E+00
  -2.9786192E+01  -6.6251984E+00   1.4806397E+00
  -3.0854521E+01  -7.2811117E+00   9.2414224E-01
  -3.1935505E+01  -8.0272722E+00   3.0553561E-01
  -3.3018276E+01  -8.8767157E+00  -3.7546623E-01
  -3.4088802E+01  -9.8434057E+00  -1.1174937E+00
  -3.5129173E+01  -1.0941393E+01  -1.9171612E+00
  -3.6116638E+01  -1.2183320E+01  -2.7685676E+00
  -3.7022511E+01  -1.3577956E+01  -3.6624050E+00
  -3.7811237E+01  -1.5126621E+01  -4.5843158E+00
  -3.8440338E+01  -1.6818470E+01  -5.5122051E+00
  -3.8862297E+01  -1.8624973E+01  -6.4123869E+00
  -3.9029881E+01  -2.0494720E+01  -7.2351961E+00
  -3.8905739E+01  -2.2350128E+01  -7.9114723E+00
  -3.8476013E+01  -2.4088379E+01  -8.3520479E+00
  -3.7765587E+01  -2.5588589E+01  -8.4525700E+00
  -3.6850231E+01  -2.6725988E+01  -8.1046391E+00
  -3.5860168E+01  -2.7391172E+01  -7.2118387E+00
  -3.4970837E+01  -2.7509666E+01  -5.7064214E+00
  -1.6767979E-03  -6.1584473E-02   7.6626682E-01
  -5.6109428E-02  -6.4918518E-02   7.4929619E-01
  -1.0174847E-01  -8.1206322E-02   7.1996975E-01
  -1.3448524E-01  -1.0689545E-01   6.8280220E-01
  -1.5297985E-01  -1.3771152E-01   6.4273238E-01
  -1.5838242E-01  -1.6965199E-01   6.0403681E-01
  -1.5339613E-01  -1.9966316E-01   5.6970417E-01
  -1.4130163E-01  -2.2587919E-01   5.4130208E-01
  -1.2518740E-01  -2.4751091E-01   5.1920700E-01
  -1.0754824E-01  -2.6454020E-01   5.0298750E-01
  -9.7156858E+00  -1.1345389E+00   3.2230785E+00
  -1.0047625E+01  -1.1648047E+00   3.3060822E+00
  -1.0389215E+01  -1.1964355E+00   3.3894646E+00
  -1.0740768E+01  -1.2295898E+00   3.4729505E+00
  -1.1102649E+01  -1.2644508E+00   3.5562322E+00
  -1.1475266E+01  -1.3012277E+00   3.6389635E+00
  -1.1859100E+01  -1.3401599E+00   3.7207541E+00
  -1.2254694E+01  -1.3815204E+00   3.8011637E+00
  -1.2662673E+01  -1.4256192E+00   3.8796937E+00
  -1.3083744E+01  -1.4728084E+00   3.9557791E+00
  -1.3518710E+01  -1.5234864E+00   4.0287762E+00
  -1.3968472E+01  -1.5781040E+00   4.0979528E+00
  -1.4434035E+01  -1.6371691E+00   4.1624751E+00
  -1.4916515E+01  -1.7012557E+00   4.2213907E+00
  -1.5417134E+01  -1.7710093E+00   4.2736168E+00
  -1.5937222E+01  -1.8471580E+00   4.3179245E+00
  -1.6478210E+01  -1.9305214E+00   4.3529210E+00
  -1.7041628E+01  -2.0220242E+00   4.3770390E+00
  -1.7629087E+01  -2.1227105E+00   4.3885226E+00
  -1.8242271E+01  -2.2337618E+00   4.3854170E+00
  -1.8882912E+01  -2.3565190E+00   4.3655596E+00
  -1.9552786E+01  -2.4925113E+00   4.3265786E+00
  -2.0253683E+01  -2.6434865E+00   4.2658854E+00
  -2.0987389E+01  -2.8114560E+00   4.1806722E+00
  -2.1755663E+01  -2.9987411E+00   4.0679097E+00
  -2.2560223E+01  -3.2080483E+00   3.9243314E+00
  -2.3402666E+01  -3.4425297E+00   3.7464225E+00
  -2.4284458E+01  -3.7058866E+00   3.5304017E+00
  -2.5206810E+01  -4.0024772E+00   3.2722020E+00
  -2.6170567E+01  -4.3374543E+00   2.9674587E+00
  -2.7176039E+01  -4.7169218E+00   2.6115270E+00
  -2.8222782E+01  -5.1481214E+00   2.1995263E+00
  -2.9309347E+01  -5.6396494E+00   1.7264326E+00
  -3.0432957E+01  -6.2016888E+00   1.1872152E+00
  -3.1589146E+01  -6.8462439E+00   5.7700068E-01
  -3.2771305E+01  -7.5873342E+00  -1.0876310E-01
  -3.3970078E+01  -8.4410477E+00  -8.7415361E-01
  -3.5172432E+01  -9.4253235E+00  -1.7226205E+00
  -3.6360382E+01  -1.0559233E+01  -2.6567676E+00
  -3.7509148E+01  -1.1861472E+01  -3.6777682E+00
  -3.8584858E+01  -1.3347661E+01  -4.7840967E+00
  -3.9542187E+01  -1.5026105E+01  -5.9688983E+00
  -4.0322929E+01  -1.6891823E+01  -7.2155256E+00
  -4.0857250E+01  -1.8919119E+01  -8.4910269E+00
  -4.1069702E+01  -2.1053734E+01  -9.7383451E+00
  -4.0891998E+01  -2.3206825E+01  -1.0869338E+01
  -4.0282684E+01  -2.5254002E+01  -1.1762218E+01
  -3.9250751E+01  -2.7042980E+01  -1.2267334E+01
  -3.7876209E+01  -2.8411793E+01  -1.2223923E+01
  -3.6318184E+01  -2.9215904E+01  -1.1486404E+01
  -3.4802803E+01  -2.9357197E+01  -9.9532013E+00
  -3.3590317E+01  -2.8805151E+01  -7.5876274E+00
  -6.6678524E-02  -4.6943665E-02   8.3491802E-01
  -1.2500715E-01  -6.5025330E-02   7.9512978E-01
  -1.6571045E-01  -9.4511986E-02   7.4421644E-01
  -1.8729973E-01  -1.2985897E-01   6.8955326E-01
  -1.9179440E-01  -1.6604805E-01   6.3735342E-01
  -1.8323231E-01  -1.9940853E-01   5.9176517E-01
  -1.6624641E-01  -2.2789288E-01   5.5472183E-01
  -1.4497566E-01  -2.5078821E-01   5.2646315E-01
  -1.2257004E-01  -2.6830864E-01   5.0613207E-01
  -9.7445726E+00  -1.0353287E+00   3.2156568E+00
  -1.0077862E+01  -1.0622289E+00   3.2973986E+00
  -1.0420959E+01  -1.0903565E+00   3.3794169E+00
  -1.0774202E+01  -1.1198542E+00   3.4614351E+00
  -1.1137978E+01  -1.1508868E+00   3.5431433E+00
  -1.1512729E+01  -1.1836426E+00   3.6241932E+00
  -1.1898965E+01  -1.2183373E+00   3.7041919E+00
  -1.2297266E+01  -1.2552166E+00   3.7826967E+00
  -1.2708299E+01  -1.2945604E+00   3.8592062E+00
  -1.3132815E+01  -1.3366865E+00   3.9331496E+00
  -1.3571671E+01  -1.3819550E+00   4.0038791E+00
  -1.4025821E+01  -1.4307739E+00   4.0706544E+00
  -1.4496334E+01  -1.4836044E+00   4.1326299E+00
  -1.4984396E+01  -1.5409678E+00   4.1888428E+00
  -1.5491309E+01  -1.6034529E+00   4.2381916E+00
  -1.6018490E+01  -1.6717248E+00   4.2794247E+00
  -1.6567472E+01  -1.7465354E+00   4.3111215E+00
  -1.7139898E+01  -1.8287365E+00   4.3316789E+00
  -1.7737511E+01  -1.9192932E+00   4.3392940E+00
  -1.8362139E+01  -2.0193043E+00   4.3319550E+00
  -1.9015696E+01  -2.1300230E+00   4.3074260E+00
  -1.9700159E+01  -2.2528875E+00   4.2632427E+00
  -2.0417557E+01  -2.3895531E+00   4.1966991E+00
  -2.1169971E+01  -2.5419397E+00   4.1048374E+00
  -2.1959496E+01  -2.7122803E+00   3.9844365E+00
  -2.2788267E+01  -2.9032011E+00   3.8319812E+00
  -2.3658382E+01  -3.1177919E+00   3.6436412E+00
  -2.4571907E+01  -3.3597169E+00   3.4152241E+00
  -2.5530771E+01  -3.6333427E+00   3.1421316E+00
  -2.6536701E+01  -3.9438958E+00   2.8193176E+00
  -2.7591066E+01  -4.2976561E+00   2.4412508E+00
  -2.8694698E+01  -4.7021909E+00   2.0019004E+00
  -2.9847672E+01  -5.1666389E+00   1.4947376E+00
  -3.1049019E+01  -5.7020402E+00   9.1274995E-01
  -3.2296375E+01  -6.3216949E+00   2.4843350E-01
  -3.3585449E+01  -7.0415106E+00  -5.0626111E-01
  -3.4909256E+01  -7.8802662E+00  -1.3600478E+00
  -3.6256859E+01  -8.8596115E+00  -2.3224592E+00
  -3.7611420E+01  -1.0003590E+01  -3.4038668E+00
  -3.8947334E+01  -1.1337255E+01  -4.6150084E+00
  -4.0226456E+01  -1.2883957E+01  -5.9654069E+00
  -4.1393784E+01  -1.4660639E+01  -7.4597368E+00
  -4.2373936E+01  -1.6670731E+01  -9.0912476E+00
  -4.3070801E+01  -1.8894669E+01  -1.0831762E+01
  -4.3373566E+01  -2.1278875E+01  -1.2618911E+01
  -4.3172703E+01  -2.3726065E+01  -1.4343678E+01
  -4.2387138E+01  -2.6090923E+01  -1.5843364E+01
  -4.0999702E+01  -2.8187193E+01  -1.6907415E+01
  -3.9090775E+01  -2.9809973E+01  -1.7301271E+01
  -3.6854828E+01  -3.0772030E+01  -1.6807608E+01
  -3.4586109E+01  -3.0945332E+01  -1.5274498E+01
  -3.2630394E+01  -3.0292536E+01  -1.2652108E+01
  -3.1316488E+01  -2.8874733E+01  -9.0010586E+00
  -1.5058041E-01  -6.2923431E-02   8.8656616E-01
  -2.0059967E-01  -9.4558716E-02   8.1815052E-01
  -2.2540283E-01  -1.3270473E-01   7.4505615E-01
  -2.2827244E-01  -1.7133999E-01   6.7610645E-01
  -2.1510410E-01  -2.0629025E-01   6.1684656E-01
  -1.9221783E-01  -2.3538971E-01   5.6960320E-01
  -1.6498852E-01  -2.5812054E-01   5.3427505E-01
  -1.3729191E-01  -2.7495575E-01   5.0938052E-01
  -9.7679710E+00  -9.3251663E-01   3.2076225E+00
  -1.0102401E+01  -9.5586675E-01   3.2882421E+00
  -1.0446777E+01  -9.8029393E-01   3.3690529E+00
  -1.0801460E+01  -1.0059239E+00   3.4497766E+00
  -1.1166858E+01  -1.0329013E+00   3.5301015E+00
  -1.1543439E+01  -1.0613916E+00   3.6096778E+00
  -1.1931744E+01  -1.0915849E+00   3.6881115E+00
  -1.2332385E+01  -1.1236972E+00   3.7649579E+00
  -1.2746064E+01  -1.1579753E+00   3.8397119E+00
  -1.3173575E+01  -1.1946993E+00   3.9118009E+00
  -1.3615819E+01  -1.2341872E+00   3.9805713E+00
  -1.4073801E+01  -1.2767999E+00   4.0452766E+00
  -1.4548651E+01  -1.3229457E+00   4.1050634E+00
  -1.5041614E+01  -1.3730872E+00   4.1589561E+00
  -1.5554066E+01  -1.4277483E+00   4.2058392E+00
  -1.6087507E+01  -1.4875221E+00   4.2444410E+00
  -1.6643562E+01  -1.5530816E+00   4.2733159E+00
  -1.7223980E+01  -1.6251907E+00   4.2908278E+00
  -1.7830627E+01  -1.7047200E+00   4.2951326E+00
  -1.8465475E+01  -1.7926636E+00   4.2841659E+00
  -1.9130602E+01  -1.8901622E+00   4.2556238E+00
  -1.9828186E+01  -1.9985307E+00   4.2069573E+00
  -2.0560492E+01  -2.1192935E+00   4.1353493E+00
  -2.1329880E+01  -2.2542276E+00   4.0377016E+00
  -2.2138790E+01  -2.4054172E+00   3.9106097E+00
  -2.2989773E+01  -2.5753317E+00   3.7503223E+00
  -2.3885441E+01  -2.7668991E+00   3.5527003E+00
  -2.4828465E+01  -2.9836254E+00   3.3131495E+00
  -2.5821552E+01  -3.2297311E+00   3.0265493E+00
  -2.6867355E+01  -3.5103211E+00   2.6871657E+00
  -2.7968403E+01  -3.8316066E+00   2.2885656E+00
  -2.9126945E+01  -4.2011743E+00   1.8235232E+00
  -3.0344812E+01  -4.6283255E+00   1.2839179E+00
  -3.1623171E+01  -5.1244826E+00   6.6059250E-01
  -3.2962208E+01  -5.7036686E+00  -5.6866825E-02
  -3.4360611E+01  -6.3830061E+00  -8.8046992E-01
  -3.5814644E+01  -7.1831956E+00  -1.8243090E+00
  -3.7316612E+01  -8.1287918E+00  -2.9051495E+00
  -3.8852257E+01  -9.2480297E+00  -4.1428900E+00
  -4.0396793E+01  -1.0571785E+01  -5.5603976E+00
  -4.1909355E+01  -1.2131033E+01  -7.1818371E+00
  -4.3326317E+01  -1.3952054E+01  -9.0281620E+00
  -4.4554749E+01  -1.6048546E+01  -1.1108252E+01
  -4.5469280E+01  -1.8410240E+01  -1.3404539E+01
  -4.5916996E+01  -2.0988758E+01  -1.5853699E+01
  -4.5735874E+01  -2.3683199E+01  -1.8325592E+01
  -4.4790867E+01  -2.6331470E+01  -2.0608761E+01
  -4.3024948E+01  -2.8715122E+01  -2.2413744E+01
  -4.0511829E+01  -3.0584724E+01  -2.3405163E+01
  -3.7486813E+01  -3.1706442E+01  -2.3264193E+01
  -3.4331627E+01  -3.1918064E+01  -2.1765738E+01
  -3.1505812E+01  -3.1173532E+01  -1.8840265E+01
  -2.9444767E+01  -2.9555004E+01  -1.4589967E+01
  -1.4236050E+01  -1.3583801E+01  -4.0988655E+00
  -2.3657036E-01  -1.1433029E-01   9.0142727E-01
  -2.6464081E-01  -1.5171814E-01   8.0651855E-01
  -2.6529503E-01  -1.8933964E-01   7.1808624E-01
  -2.4671555E-01  -2.2274113E-01   6.4331484E-01
  -2.1725082E-01  -2.4983501E-01   5.8479261E-01
  -1.8366051E-01  -2.7028704E-01   5.4191351E-01
  -1.5050125E-01  -2.8484344E-01   5.1231503E-01
  -9.7865133E+00  -8.2666326E-01   3.1995265E+00
  -1.0121886E+01  -8.4630519E-01   3.2791731E+00
  -1.0467326E+01  -8.6686260E-01   3.3589404E+00
  -1.0823208E+01  -8.8844270E-01   3.4385488E+00
  -1.1189961E+01  -9.1116858E-01   3.5176859E+00
  -1.1568080E+01  -9.3518168E-01   3.5960011E+00
  -1.1958125E+01  -9.6064365E-01   3.6730990E+00
  -1.2360742E+01  -9.8773932E-01   3.7485332E+00
  -1.2776662E+01  -1.0166790E+00   3.8217974E+00
  -1.3206715E+01  -1.0477024E+00   3.8923154E+00
  -1.3651840E+01  -1.0810817E+00   3.9594305E+00
  -1.4113091E+01  -1.1171257E+00   4.0223904E+00
  -1.4591645E+01  -1.1561853E+00   4.0803351E+00
  -1.5088805E+01  -1.1986580E+00   4.1322789E+00
  -1.5606010E+01  -1.2449951E+00   4.1770930E+00
  -1.6144836E+01  -1.2957085E+00   4.2134895E+00
  -1.6706991E+01  -1.3513813E+00   4.2400007E+00
  -1.7294319E+01  -1.4126768E+00   4.2549610E+00
  -1.7908794E+01  -1.4803534E+00   4.2564912E+00
  -1.8552526E+01  -1.5552809E+00   4.2424784E+00
  -1.9227743E+01  -1.6384617E+00   4.2105608E+00
  -1.9936808E+01  -1.7310562E+00   4.1581101E+00
  -2.0682209E+01  -1.8344170E+00   4.0822101E+00
  -2.1466568E+01  -1.9501301E+00   3.9796345E+00
  -2.2292658E+01  -2.0800662E+00   3.8468096E+00
  -2.3163427E+01  -2.2264566E+00   3.6797652E+00
  -2.4081978E+01  -2.3919671E+00   3.4740744E+00
  -2.5051598E+01  -2.5798130E+00   3.2247658E+00
  -2.6075748E+01  -2.7938983E+00   2.9262176E+00
  -2.7158033E+01  -3.0389903E+00   2.5720363E+00
  -2.8302168E+01  -3.3209503E+00   2.1549065E+00
  -2.9511898E+01  -3.6470199E+00   1.6664176E+00
  -3.0790920E+01  -4.0261927E+00   1.0968404E+00
  -3.2142746E+01  -4.4696712E+00   4.3480992E-01
  -3.3570438E+01  -4.9914212E+00  -3.3313379E-01
  -3.5076157E+01  -5.6088095E+00  -1.2232381E+00
  -3.6660152E+01  -6.3432493E+00  -2.2554741E+00
  -3.8319016E+01  -7.2207570E+00  -3.4546955E+00
  -4.0042488E+01  -8.2721272E+00  -4.8517332E+00
  -4.1808418E+01  -9.5323296E+00  -6.4838128E+00
  -4.3575321E+01  -1.1038412E+01  -8.3931303E+00
  -4.5272865E+01  -1.2824988E+01  -1.0621723E+01
  -4.6791634E+01  -1.4916170E+01  -1.3200388E+01
  -4.7975842E+01  -1.7313009E+01  -1.6129463E+01
  -4.8625298E+01  -1.9976564E+01  -1.9351042E+01
  -4.8515343E+01  -2.2809208E+01  -2.2716461E+01
  -4.7442062E+01  -2.5640558E+01  -2.5959667E+01
  -4.5292618E+01  -2.8228510E+01  -2.8694496E+01
  -4.2123997E+01  -3.0285971E+01  -3.0455082E+01
  -3.8215435E+01  -3.1536327E+01  -3.0786070E+01
  -3.4055241E+01  -3.1784584E+01  -2.9361532E+01
  -3.0246187E+01  -3.0975731E+01  -2.6083754E+01
  -2.7358522E+01  -2.9211536E+01  -2.1111406E+01
  -2.5793419E+01  -2.6715960E+01  -1.4799507E+01
  -2.6895905E-01  -1.6109657E-01   9.8633385E-01
  -3.0045891E-01  -1.9195652E-01   8.6808491E-01
  -2.9871178E-01  -2.2327328E-01   7.5905895E-01
  -2.7457619E-01  -2.5061226E-01   6.6829300E-01
  -2.3859596E-01  -2.7209091E-01   5.9851074E-01
  -1.9890022E-01  -2.8759861E-01   5.4832935E-01
  -1.6071129E-01  -2.9796648E-01   5.1438868E-01
  -9.8007832E+00  -7.1832186E-01   3.1919827E+00
  -1.0136912E+01  -7.3412341E-01   3.2708158E+00
  -1.0483208E+01  -7.5066906E-01   3.3497128E+00
  -1.0840058E+01  -7.6804620E-01   3.4283946E+00
  -1.1207911E+01  -7.8635526E-01   3.5065472E+00
  -1.1587278E+01  -8.0571157E-01   3.5838192E+00
  -1.1978745E+01  -8.2624727E-01   3.6598148E+00
  -1.2382975E+01  -8.4811318E-01   3.7340868E+00
  -1.2800728E+01  -8.7148136E-01   3.8061266E+00
  -1.3232867E+01  -8.9654773E-01   3.8753574E+00
  -1.3680363E+01  -9.2353541E-01   3.9411178E+00
  -1.4144305E+01  -9.5269769E-01   4.0026526E+00
  -1.4625916E+01  -9.8432243E-01   4.0590954E+00
  -1.5126548E+01  -1.0187366E+00   4.1094518E+00
  -1.5647694E+01  -1.0563118E+00   4.1525836E+00
  -1.6190990E+01  -1.0974714E+00   4.1871877E+00
  -1.6758219E+01  -1.1426967E+00   4.2117772E+00
  -1.7351307E+01  -1.1925390E+00   4.2246652E+00
  -1.7972330E+01  -1.2476289E+00   4.2239385E+00
  -1.8623503E+01  -1.3086929E+00   4.2074451E+00
  -1.9307201E+01  -1.3765709E+00   4.1727715E+00
  -2.0025940E+01  -1.4522389E+00   4.1172228E+00
  -2.0782410E+01  -1.5368397E+00   4.0377955E+00
  -2.1579477E+01  -1.6317203E+00   3.9311512E+00
  -2.2420204E+01  -1.7384766E+00   3.7935688E+00
  -2.3307903E+01  -1.8590229E+00   3.6208825E+00
  -2.4246138E+01  -1.9956594E+00   3.4084101E+00
  -2.5238758E+01  -2.1511798E+00   3.1508396E+00
  -2.6289938E+01  -2.3289986E+00   2.8420978E+00
  -2.7404186E+01  -2.5333204E+00   2.4751852E+00
  -2.8586361E+01  -2.7693558E+00   2.0419688E+00
  -2.9841669E+01  -3.0436063E+00   1.5329254E+00
  -3.1175673E+01  -3.3642306E+00   9.3679398E-01