# vtk DataFile Version 3.0
SM polar seed points transformed to GSW coordinates
ASCII
DATASET POLYDATA
POINTS      288 float
       1.059316       0.000000       1.062003
       1.034623       0.194114       1.068586
       0.962226       0.375000       1.087886
       0.847059       0.530330       1.118589
       0.696971       0.649519       1.158601
       0.522190       0.724444       1.205196
       0.334626       0.750000       1.255199
       0.147063       0.724444       1.305202
      -0.027718       0.649519       1.351798
      -0.177806       0.530330       1.391810
      -0.292973       0.375000       1.422513
      -0.365370       0.194114       1.441813
      -0.390063      -0.000000       1.448396
      -0.365370      -0.194114       1.441813
      -0.292973      -0.375000       1.422513
      -0.177806      -0.530330       1.391810
      -0.027718      -0.649519       1.351798
       0.147063      -0.724444       1.305202
       0.334627      -0.750000       1.255199
       0.522190      -0.724444       1.205196
       0.696971      -0.649519       1.158601
       0.847059      -0.530330       1.118589
       0.962226      -0.375000       1.087886
       1.034623      -0.194114       1.068586
       0.962725       0.000000       1.150287
       0.941854       0.164072       1.155851
       0.880661       0.316964       1.172164
       0.783318       0.448254       1.198115
       0.656458       0.548997       1.231935
       0.508727       0.612327       1.271319
       0.350191       0.633927       1.313584
       0.191656       0.612327       1.355848
       0.043924       0.548997       1.395232
      -0.082936       0.448254       1.429052
      -0.180279       0.316964       1.455003
      -0.241471       0.164073       1.471316
      -0.262343      -0.000000       1.476881
      -0.241471      -0.164073       1.471316
      -0.180279      -0.316964       1.455003
      -0.082936      -0.448254       1.429052
       0.043924      -0.548997       1.395232
       0.191656      -0.612327       1.355848
       0.350191      -0.633927       1.313584
       0.508727      -0.612327       1.271319
       0.656458      -0.548997       1.231935
       0.783318      -0.448254       1.198115
       0.880661      -0.316964       1.172164
       0.941854      -0.164073       1.155851
       0.858808       0.000000       1.229817
       0.841917       0.132782       1.234320
       0.792394       0.256515       1.247522
       0.713616       0.362767       1.268524
       0.610950       0.444297       1.295894
       0.491392       0.495549       1.327767
       0.363091       0.513030       1.361971
       0.234790       0.495549       1.396175
       0.115233       0.444297       1.428048
       0.012566       0.362767       1.455418
      -0.066212       0.256515       1.476420
      -0.115735       0.132782       1.489622
      -0.132626      -0.000000       1.494125
      -0.115735      -0.132782       1.489622
      -0.066212      -0.256515       1.476420
       0.012566      -0.362767       1.455418
       0.115233      -0.444297       1.428048
       0.234790      -0.495549       1.396175
       0.363091      -0.513030       1.361971
       0.491392      -0.495549       1.327767
       0.610949      -0.444297       1.295894
       0.713616      -0.362767       1.268524
       0.792394      -0.256515       1.247522
       0.841917      -0.132782       1.234320
       0.748354       0.000000       1.299987
       0.735572       0.100481       1.303394
       0.698097       0.194114       1.313385
       0.638482       0.274519       1.329278
       0.560791       0.336216       1.349990
       0.470317       0.375000       1.374109
       0.373227       0.388229       1.399993
       0.276137       0.375000       1.425876
       0.185664       0.336216       1.449996
       0.107973       0.274519       1.470708
       0.048358       0.194114       1.486601
       0.010883       0.100481       1.496591
      -0.001900      -0.000000       1.499999
       0.010883      -0.100481       1.496591
       0.048358      -0.194114       1.486601
       0.107973      -0.274519       1.470708
       0.185664      -0.336216       1.449996
       0.276137      -0.375000       1.425876
       0.373227      -0.388229       1.399993
       0.470317      -0.375000       1.374109
       0.560791      -0.336216       1.349990
       0.638482      -0.274519       1.329278
       0.698097      -0.194114       1.313385
       0.735572      -0.100481       1.303394
       0.632205       0.000000       1.360263
       0.623629       0.067415       1.362550
       0.598486       0.130236       1.369253
       0.558489       0.184182       1.379915
       0.506364       0.225576       1.393812
       0.445663       0.251597       1.409994
       0.380523       0.260472       1.427360
       0.315383       0.251597       1.444726
       0.254682       0.225576       1.460908
       0.202557       0.184182       1.474804
       0.162560       0.130236       1.485467
       0.137417       0.067415       1.492170
       0.128841      -0.000000       1.494456
       0.137417      -0.067415       1.492170
       0.162560      -0.130236       1.485467
       0.202557      -0.184182       1.474804
       0.254682      -0.225576       1.460908
       0.315383      -0.251597       1.444726
       0.380523      -0.260472       1.427360
       0.445663      -0.251597       1.409994
       0.506364      -0.225576       1.393812
       0.558489      -0.184182       1.379915
       0.598486      -0.130236       1.369253
       0.623629      -0.067415       1.362550
       0.511245       0.000000       1.410187
       0.506941       0.033836       1.411335
       0.494321       0.065367       1.414699
       0.474246       0.092443       1.420051
       0.448084       0.113219       1.427026
       0.417618       0.126279       1.435148
       0.384923       0.130734       1.443864
       0.352229       0.126279       1.452580
       0.321762       0.113219       1.460702
       0.295600       0.092443       1.467677
       0.275525       0.065367       1.473029
       0.262906       0.033836       1.476393
       0.258601      -0.000000       1.477540
       0.262906      -0.033836       1.476393
       0.275525      -0.065367       1.473029
       0.295600      -0.092443       1.467677
       0.321762      -0.113219       1.460702
       0.352229      -0.126279       1.452580
       0.384923      -0.130734       1.443864
       0.417618      -0.126279       1.435148
       0.448084      -0.113219       1.427026
       0.474246      -0.092443       1.420051
       0.494321      -0.065367       1.414699
       0.506941      -0.033836       1.411335
       0.390063       0.000000      -1.448396
       0.365370       0.194114      -1.441813
       0.292973       0.375000      -1.422513
       0.177806       0.530330      -1.391810
       0.027718       0.649519      -1.351798
      -0.147063       0.724444      -1.305202
      -0.334627       0.750000      -1.255199
      -0.522190       0.724444      -1.205196
      -0.696971       0.649519      -1.158601
      -0.847059       0.530330      -1.118589
      -0.962226       0.375000      -1.087886
      -1.034623       0.194114      -1.068586
      -1.059316      -0.000000      -1.062003
      -1.034623      -0.194114      -1.068586
      -0.962226      -0.375000      -1.087886
      -0.847059      -0.530330      -1.118589
      -0.696971      -0.649519      -1.158601
      -0.522190      -0.724444      -1.205196
      -0.334626      -0.750000      -1.255199
      -0.147063      -0.724444      -1.305202
       0.027718      -0.649519      -1.351798
       0.177806      -0.530330      -1.391810
       0.292973      -0.375000      -1.422513
       0.365370      -0.194114      -1.441813
       0.262343       0.000000      -1.476881
       0.241471       0.164072      -1.471316
       0.180279       0.316964      -1.455003
       0.082936       0.448254      -1.429052
      -0.043924       0.548997      -1.395232
      -0.191656       0.612327      -1.355848
      -0.350191       0.633927      -1.313584
      -0.508727       0.612327      -1.271319
      -0.656458       0.548997      -1.231935
      -0.783318       0.448254      -1.198115
      -0.880661       0.316964      -1.172164
      -0.941854       0.164073      -1.155851
      -0.962725      -0.000000      -1.150287
      -0.941854      -0.164073      -1.155851
      -0.880661      -0.316964      -1.172164
      -0.783318      -0.448254      -1.198115
      -0.656458      -0.548997      -1.231935
      -0.508727      -0.612327      -1.271319
      -0.350191      -0.633927      -1.313584
      -0.191656      -0.612327      -1.355848
      -0.043924      -0.548997      -1.395232
       0.082936      -0.448254      -1.429052
       0.180279      -0.316964      -1.455003
       0.241471      -0.164073      -1.471316
       0.132626       0.000000      -1.494125
       0.115735       0.132782      -1.489622
       0.066212       0.256515      -1.476420
      -0.012566       0.362767      -1.455418
      -0.115233       0.444297      -1.428048
      -0.234790       0.495549      -1.396175
      -0.363091       0.513030      -1.361971
      -0.491392       0.495549      -1.327767
      -0.610950       0.444297      -1.295894
      -0.713616       0.362767      -1.268524
      -0.792394       0.256515      -1.247522
      -0.841917       0.132782      -1.234320
      -0.858808      -0.000000      -1.229817
      -0.841917      -0.132782      -1.234320
      -0.792394      -0.256515      -1.247522
      -0.713616      -0.362767      -1.268524
      -0.610949      -0.444297      -1.295894
      -0.491392      -0.495549      -1.327767
      -0.363091      -0.513030      -1.361971
      -0.234790      -0.495549      -1.396175
      -0.115233      -0.444297      -1.428048
      -0.012566      -0.362767      -1.455418
       0.066212      -0.256515      -1.476420
       0.115735      -0.132782      -1.489622
       0.001900       0.000000      -1.499999
      -0.010883       0.100481      -1.496591
      -0.048358       0.194114      -1.486601
      -0.107973       0.274519      -1.470708
      -0.185664       0.336216      -1.449996
      -0.276137       0.375000      -1.425876
      -0.373227       0.388229      -1.399993
      -0.470317       0.375000      -1.374109
      -0.560791       0.336216      -1.349990
      -0.638482       0.274519      -1.329278
      -0.698097       0.194114      -1.313385
      -0.735572       0.100481      -1.303394
      -0.748354      -0.000000      -1.299987
      -0.735572      -0.100481      -1.303394
      -0.698097      -0.194114      -1.313385
      -0.638482      -0.274519      -1.329278
      -0.560791      -0.336216      -1.349990
      -0.470317      -0.375000      -1.374109
      -0.373227      -0.388229      -1.399993
      -0.276137      -0.375000      -1.425876
      -0.185664      -0.336216      -1.449996
      -0.107973      -0.274519      -1.470708
      -0.048358      -0.194114      -1.486601
      -0.010883      -0.100481      -1.496591
      -0.128841       0.000000      -1.494456
      -0.137417       0.067415      -1.492170
      -0.162560       0.130236      -1.485467
      -0.202557       0.184182      -1.474804
      -0.254682       0.225576      -1.460908
      -0.315383       0.251597      -1.444726
      -0.380523       0.260472      -1.427360
      -0.445663       0.251597      -1.409994
      -0.506364       0.225576      -1.393812
      -0.558489       0.184182      -1.379915
      -0.598486       0.130236      -1.369253
      -0.623629       0.067415      -1.362550
      -0.632205      -0.000000      -1.360263
      -0.623629      -0.067415      -1.362550
      -0.598486      -0.130236      -1.369253
      -0.558489      -0.184182      -1.379915
      -0.506364      -0.225576      -1.393812
      -0.445663      -0.251597      -1.409994
      -0.380523      -0.260472      -1.427360
      -0.315383      -0.251597      -1.444726
      -0.254682      -0.225576      -1.460908
      -0.202557      -0.184182      -1.474804
      -0.162560      -0.130236      -1.485467
      -0.137417      -0.067415      -1.492170
      -0.258601       0.000000      -1.477540
      -0.262906       0.033836      -1.476393
      -0.275525       0.065367      -1.473029
      -0.295600       0.092443      -1.467677
      -0.321762       0.113219      -1.460702
      -0.352229       0.126279      -1.452580
      -0.384923       0.130734      -1.443864
      -0.417618       0.126279      -1.435148
      -0.448084       0.113219      -1.427026
      -0.474246       0.092443      -1.420051
      -0.494321       0.065367      -1.414699
      -0.506941       0.033836      -1.411335
      -0.511245      -0.000000      -1.410187
      -0.506941      -0.033836      -1.411335
      -0.494321      -0.065367      -1.414699
      -0.474246      -0.092443      -1.420051
      -0.448084      -0.113219      -1.427026
      -0.417618      -0.126279      -1.435148
      -0.384923      -0.130734      -1.443864
      -0.352229      -0.126279      -1.452580
      -0.321762      -0.113219      -1.460702
      -0.295600      -0.092443      -1.467677
      -0.275525      -0.065367      -1.473029
      -0.262906      -0.033836      -1.476393
VERTICES      288     576
 1        0
 1        1
 1        2
 1        3
 1        4
 1        5
 1        6
 1        7
 1        8
 1        9
 1       10
 1       11
 1       12
 1       13
 1       14
 1       15
 1       16
 1       17
 1       18
 1       19
 1       20
 1       21
 1       22
 1       23
 1       24
 1       25
 1       26
 1       27
 1       28
 1       29
 1       30
 1       31
 1       32
 1       33
 1       34
 1       35
 1       36
 1       37
 1       38
 1       39
 1       40
 1       41
 1       42
 1       43
 1       44
 1       45
 1       46
 1       47
 1       48
 1       49
 1       50
 1       51
 1       52
 1       53
 1       54
 1       55
 1       56
 1       57
 1       58
 1       59
 1       60
 1       61
 1       62
 1       63
 1       64
 1       65
 1       66
 1       67
 1       68
 1       69
 1       70
 1       71
 1       72
 1       73
 1       74
 1       75
 1       76
 1       77
 1       78
 1       79
 1       80
 1       81
 1       82
 1       83
 1       84
 1       85
 1       86
 1       87
 1       88
 1       89
 1       90
 1       91
 1       92
 1       93
 1       94
 1       95
 1       96
 1       97
 1       98
 1       99
 1      100
 1      101
 1      102
 1      103
 1      104
 1      105
 1      106
 1      107
 1      108
 1      109
 1      110
 1      111
 1      112
 1      113
 1      114
 1      115
 1      116
 1      117
 1      118
 1      119
 1      120
 1      121
 1      122
 1      123
 1      124
 1      125
 1      126
 1      127
 1      128
 1      129
 1      130
 1      131
 1      132
 1      133
 1      134
 1      135
 1      136
 1      137
 1      138
 1      139
 1      140
 1      141
 1      142
 1      143
 1      144
 1      145
 1      146
 1      147
 1      148
 1      149
 1      150
 1      151
 1      152
 1      153
 1      154
 1      155
 1      156
 1      157
 1      158
 1      159
 1      160
 1      161
 1      162
 1      163
 1      164
 1      165
 1      166
 1      167
 1      168
 1      169
 1      170
 1      171
 1      172
 1      173
 1      174
 1      175
 1      176
 1      177
 1      178
 1      179
 1      180
 1      181
 1      182
 1      183
 1      184
 1      185
 1      186
 1      187
 1      188
 1      189
 1      190
 1      191
 1      192
 1      193
 1      194
 1      195
 1      196
 1      197
 1      198
 1      199
 1      200
 1      201
 1      202
 1      203
 1      204
 1      205
 1      206
 1      207
 1      208
 1      209
 1      210
 1      211
 1      212
 1      213
 1      214
 1      215
 1      216
 1      217
 1      218
 1      219
 1      220
 1      221
 1      222
 1      223
 1      224
 1      225
 1      226
 1      227
 1      228
 1      229
 1      230
 1      231
 1      232
 1      233
 1      234
 1      235
 1      236
 1      237
 1      238
 1      239
 1      240
 1      241
 1      242
 1      243
 1      244
 1      245
 1      246
 1      247
 1      248
 1      249
 1      250
 1      251
 1      252
 1      253
 1      254
 1      255
 1      256
 1      257
 1      258
 1      259
 1      260
 1      261
 1      262
 1      263
 1      264
 1      265
 1      266
 1      267
 1      268
 1      269
 1      270
 1      271
 1      272
 1      273
 1      274
 1      275
 1      276
 1      277
 1      278
 1      279
 1      280
 1      281
 1      282
 1      283
 1      284
 1      285
 1      286
 1      287
POINT_DATA      288
SCALARS hemisphere int 1
LOOKUP_TABLE default
 1
 1
 1
 1
 1
 1
 1
 1
 1
 1
 1
 1
 1
 1
 1
 1
 1
 1
 1
 1
 1
 1
 1
 1
 1
 1
 1
 1
 1
 1
 1
 1
 1
 1
 1
 1
 1
 1
 1
 1
 1
 1
 1
 1
 1
 1
 1
 1
 1
 1
 1
 1
 1
 1
 1
 1
 1
 1
 1
 1
 1
 1
 1
 1
 1
 1
 1
 1
 1
 1
 1
 1
 1
 1
 1
 1
 1
 1
 1
 1
 1
 1
 1
 1
 1
 1
 1
 1
 1
 1
 1
 1
 1
 1
 1
 1
 1
 1
 1
 1
 1
 1
 1
 1
 1
 1
 1
 1
 1
 1
 1
 1
 1
 1
 1
 1
 1
 1
 1
 1
 1
 1
 1
 1
 1
 1
 1
 1
 1
 1
 1
 1
 1
 1
 1
 1
 1
 1
 1
 1
 1
 1
 1
 1
-1
-1
-1
-1
-1
-1
-1
-1
-1
-1
-1
-1
-1
-1
-1
-1
-1
-1
-1
-1
-1
-1
-1
-1
-1
-1
-1
-1
-1
-1
-1
-1
-1
-1
-1
-1
-1
-1
-1
-1
-1
-1
-1
-1
-1
-1
-1
-1
-1
-1
-1
-1
-1
-1
-1
-1
-1
-1
-1
-1
-1
-1
-1
-1
-1
-1
-1
-1
-1
-1
-1
-1
-1
-1
-1
-1
-1
-1
-1
-1
-1
-1
-1
-1
-1
-1
-1
-1
-1
-1
-1
-1
-1
-1
-1
-1
-1
-1
-1
-1
-1
-1
-1
-1
-1
-1
-1
-1
-1
-1
-1
-1
-1
-1
-1
-1
-1
-1
-1
-1
-1
-1
-1
-1
-1
-1
-1
-1
-1
-1
-1
-1
-1
-1
-1
-1
-1
-1
-1
-1
-1
-1
-1
-1
