# vtk DataFile Version 3.0
SM polar seed points transformed to GSW coordinates
ASCII
DATASET POLYDATA
POINTS      288 float
       0.628029       0.000000       1.362197
       0.602580       0.194114       1.359859
       0.527969       0.375000       1.353005
       0.409280       0.530330       1.342103
       0.254601       0.649519       1.327894
       0.074474       0.724444       1.311348
      -0.118827       0.750000       1.293592
      -0.312127       0.724444       1.275836
      -0.492255       0.649519       1.259290
      -0.646933       0.530330       1.245081
      -0.765623       0.375000       1.234179
      -0.840234       0.194114       1.227325
      -0.865682      -0.000000       1.224987
      -0.840234      -0.194114       1.227325
      -0.765623      -0.375000       1.234179
      -0.646933      -0.530330       1.245081
      -0.492255      -0.649519       1.259290
      -0.312127      -0.724444       1.275836
      -0.118827      -0.750000       1.293592
       0.074474      -0.724444       1.311348
       0.254601      -0.649519       1.327894
       0.409280      -0.530330       1.342103
       0.527969      -0.375000       1.353005
       0.602580      -0.194114       1.359859
       0.506916       0.000000       1.411749
       0.485406       0.164072       1.409774
       0.422342       0.316964       1.403981
       0.322021       0.448254       1.394765
       0.191281       0.548997       1.382756
       0.039031       0.612327       1.368770
      -0.124354       0.633927       1.353762
      -0.287739       0.612327       1.338754
      -0.439989       0.548997       1.324769
      -0.570729       0.448254       1.312759
      -0.671050       0.316964       1.303544
      -0.734114       0.164073       1.297751
      -0.755624      -0.000000       1.295775
      -0.734114      -0.164073       1.297751
      -0.671050      -0.316964       1.303544
      -0.570729      -0.448254       1.312759
      -0.439989      -0.548997       1.324769
      -0.287739      -0.612327       1.338754
      -0.124354      -0.633927       1.353762
       0.039031      -0.612327       1.368770
       0.191281      -0.548997       1.382756
       0.322021      -0.448254       1.394765
       0.422342      -0.316964       1.403981
       0.485406      -0.164073       1.409774
       0.381945       0.000000       1.450558
       0.364537       0.132782       1.448959
       0.313500       0.256515       1.444271
       0.232312       0.362767       1.436813
       0.126505       0.444297       1.427094
       0.003291       0.495549       1.415776
      -0.128935       0.513030       1.403630
      -0.261160       0.495549       1.391484
      -0.384374       0.444297       1.380165
      -0.490181       0.362767       1.370446
      -0.571369       0.256515       1.362988
      -0.622406       0.132782       1.358300
      -0.639814      -0.000000       1.356701
      -0.622406      -0.132782       1.358300
      -0.571369      -0.256515       1.362988
      -0.490181      -0.362767       1.370446
      -0.384374      -0.444297       1.380165
      -0.261160      -0.495549       1.391484
      -0.128935      -0.513030       1.403630
       0.003291      -0.495549       1.415776
       0.126505      -0.444297       1.427094
       0.232312      -0.362767       1.436813
       0.313500      -0.256515       1.444271
       0.364537      -0.132782       1.448959
       0.254067       0.000000       1.478327
       0.240894       0.100481       1.477117
       0.202272       0.194114       1.473569
       0.140834       0.274519       1.467926
       0.060766       0.336216       1.460571
      -0.032474       0.375000       1.452006
      -0.132534       0.388229       1.442814
      -0.232594       0.375000       1.433623
      -0.325835       0.336216       1.425058
      -0.405902       0.274519       1.417703
      -0.467340       0.194114       1.412060
      -0.505962       0.100481       1.408512
      -0.519135      -0.000000       1.407302
      -0.505962      -0.100481       1.408512
      -0.467340      -0.194114       1.412060
      -0.405902      -0.274519       1.417703
      -0.325835      -0.336216       1.425058
      -0.232594      -0.375000       1.433623
      -0.132534      -0.388229       1.442814
      -0.032474      -0.375000       1.452006
       0.060766      -0.336216       1.460571
       0.140834      -0.274519       1.467926
       0.202272      -0.194114       1.473569
       0.240894      -0.100481       1.477117
       0.124255       0.000000       1.494845
       0.115417       0.067415       1.494033
       0.089505       0.130236       1.491653
       0.048285       0.184182       1.487866
      -0.005435       0.225576       1.482932
      -0.067992       0.251597       1.477185
      -0.135125       0.260472       1.471019
      -0.202257       0.251597       1.464852
      -0.264815       0.225576       1.459105
      -0.318534       0.184182       1.454171
      -0.359755       0.130236       1.450384
      -0.385667       0.067415       1.448004
      -0.394505      -0.000000       1.447192
      -0.385667      -0.067415       1.448004
      -0.359755      -0.130236       1.450384
      -0.318534      -0.184182       1.454171
      -0.264815      -0.225576       1.459105
      -0.202257      -0.251597       1.464852
      -0.135125      -0.260472       1.471019
      -0.067992      -0.251597       1.477185
      -0.005435      -0.225576       1.482932
       0.048285      -0.184182       1.487866
       0.089505      -0.130236       1.491653
       0.115417      -0.067415       1.494033
      -0.006502       0.000000       1.499986
      -0.010938       0.033836       1.499578
      -0.023943       0.065367       1.498384
      -0.044632       0.092443       1.496483
      -0.071594       0.113219       1.494007
      -0.102993       0.126279       1.491122
      -0.136687       0.130734       1.488027
      -0.170382       0.126279       1.484932
      -0.201780       0.113219       1.482048
      -0.228742       0.092443       1.479571
      -0.249431       0.065367       1.477671
      -0.262437       0.033836       1.476476
      -0.266873      -0.000000       1.476069
      -0.262437      -0.033836       1.476476
      -0.249431      -0.065367       1.477671
      -0.228742      -0.092443       1.479571
      -0.201780      -0.113219       1.482048
      -0.170382      -0.126279       1.484932
      -0.136687      -0.130734       1.488027
      -0.102993      -0.126279       1.491122
      -0.071594      -0.113219       1.494007
      -0.044632      -0.092443       1.496483
      -0.023943      -0.065367       1.498384
      -0.010938      -0.033836       1.499578
       0.865682       0.000000      -1.224987
       0.840234       0.194114      -1.227325
       0.765623       0.375000      -1.234179
       0.646933       0.530330      -1.245081
       0.492255       0.649519      -1.259290
       0.312127       0.724444      -1.275836
       0.118827       0.750000      -1.293592
      -0.074474       0.724444      -1.311348
      -0.254601       0.649519      -1.327894
      -0.409280       0.530330      -1.342103
      -0.527969       0.375000      -1.353005
      -0.602580       0.194114      -1.359859
      -0.628029      -0.000000      -1.362197
      -0.602580      -0.194114      -1.359859
      -0.527969      -0.375000      -1.353006
      -0.409280      -0.530330      -1.342103
      -0.254601      -0.649519      -1.327894
      -0.074474      -0.724444      -1.311348
       0.118827      -0.750000      -1.293592
       0.312127      -0.724444      -1.275836
       0.492255      -0.649519      -1.259290
       0.646933      -0.530330      -1.245081
       0.765623      -0.375000      -1.234179
       0.840234      -0.194114      -1.227325
       0.755624       0.000000      -1.295775
       0.734114       0.164072      -1.297751
       0.671050       0.316964      -1.303544
       0.570729       0.448254      -1.312759
       0.439989       0.548997      -1.324769
       0.287739       0.612327      -1.338754
       0.124354       0.633927      -1.353762
      -0.039031       0.612327      -1.368770
      -0.191281       0.548997      -1.382756
      -0.322021       0.448254      -1.394765
      -0.422342       0.316964      -1.403981
      -0.485406       0.164073      -1.409774
      -0.506916      -0.000000      -1.411749
      -0.485406      -0.164073      -1.409774
      -0.422342      -0.316964      -1.403981
      -0.322021      -0.448254      -1.394765
      -0.191281      -0.548997      -1.382756
      -0.039031      -0.612327      -1.368770
       0.124354      -0.633927      -1.353762
       0.287739      -0.612327      -1.338754
       0.439989      -0.548997      -1.324769
       0.570729      -0.448254      -1.312759
       0.671049      -0.316964      -1.303544
       0.734114      -0.164073      -1.297751
       0.639814       0.000000      -1.356701
       0.622406       0.132782      -1.358300
       0.571369       0.256515      -1.362988
       0.490181       0.362767      -1.370446
       0.384374       0.444297      -1.380165
       0.261160       0.495549      -1.391484
       0.128935       0.513030      -1.403630
      -0.003291       0.495549      -1.415776
      -0.126505       0.444297      -1.427094
      -0.232312       0.362767      -1.436813
      -0.313500       0.256515      -1.444271
      -0.364537       0.132782      -1.448959
      -0.381945      -0.000000      -1.450558
      -0.364537      -0.132782      -1.448959
      -0.313500      -0.256515      -1.444271
      -0.232312      -0.362767      -1.436813
      -0.126505      -0.444297      -1.427094
      -0.003291      -0.495549      -1.415776
       0.128935      -0.513030      -1.403630
       0.261160      -0.495549      -1.391484
       0.384374      -0.444297      -1.380165
       0.490181      -0.362767      -1.370446
       0.571369      -0.256515      -1.362988
       0.622406      -0.132782      -1.358300
       0.519135       0.000000      -1.407302
       0.505962       0.100481      -1.408512
       0.467340       0.194114      -1.412060
       0.405902       0.274519      -1.417703
       0.325835       0.336216      -1.425058
       0.232594       0.375000      -1.433623
       0.132534       0.388229      -1.442814
       0.032474       0.375000      -1.452006
      -0.060766       0.336216      -1.460571
      -0.140834       0.274519      -1.467926
      -0.202272       0.194114      -1.473569
      -0.240894       0.100481      -1.477117
      -0.254067      -0.000000      -1.478327
      -0.240894      -0.100481      -1.477117
      -0.202272      -0.194114      -1.473569
      -0.140834      -0.274519      -1.467926
      -0.060766      -0.336216      -1.460571
       0.032474      -0.375000      -1.452006
       0.132534      -0.388229      -1.442814
       0.232594      -0.375000      -1.433623
       0.325835      -0.336216      -1.425058
       0.405902      -0.274519      -1.417703
       0.467340      -0.194114      -1.412060
       0.505962      -0.100481      -1.408512
       0.394505       0.000000      -1.447192
       0.385667       0.067415      -1.448004
       0.359755       0.130236      -1.450384
       0.318534       0.184182      -1.454171
       0.264815       0.225576      -1.459105
       0.202257       0.251597      -1.464852
       0.135125       0.260472      -1.471019
       0.067992       0.251597      -1.477185
       0.005435       0.225576      -1.482932
      -0.048285       0.184182      -1.487866
      -0.089505       0.130236      -1.491653
      -0.115417       0.067415      -1.494033
      -0.124255      -0.000000      -1.494845
      -0.115417      -0.067415      -1.494033
      -0.089505      -0.130236      -1.491653
      -0.048285      -0.184182      -1.487866
       0.005435      -0.225576      -1.482932
       0.067992      -0.251597      -1.477185
       0.135125      -0.260472      -1.471019
       0.202257      -0.251597      -1.464852
       0.264815      -0.225576      -1.459105
       0.318534      -0.184182      -1.454171
       0.359755      -0.130236      -1.450384
       0.385667      -0.067415      -1.448004
       0.266873       0.000000      -1.476069
       0.262437       0.033836      -1.476476
       0.249431       0.065367      -1.477671
       0.228742       0.092443      -1.479571
       0.201780       0.113219      -1.482048
       0.170382       0.126279      -1.484932
       0.136687       0.130734      -1.488027
       0.102993       0.126279      -1.491122
       0.071594       0.113219      -1.494007
       0.044632       0.092443      -1.496483
       0.023943       0.065367      -1.498384
       0.010938       0.033836      -1.499578
       0.006502      -0.000000      -1.499986
       0.010938      -0.033836      -1.499578
       0.023943      -0.065367      -1.498384
       0.044632      -0.092443      -1.496483
       0.071594      -0.113219      -1.494007
       0.102993      -0.126279      -1.491122
       0.136687      -0.130734      -1.488027
       0.170382      -0.126279      -1.484932
       0.201780      -0.113219      -1.482048
       0.228742      -0.092443      -1.479571
       0.249431      -0.065367      -1.477671
       0.262437      -0.033836      -1.476476
VERTICES      288     576
 1        0
 1        1
 1        2
 1        3
 1        4
 1        5
 1        6
 1        7
 1        8
 1        9
 1       10
 1       11
 1       12
 1       13
 1       14
 1       15
 1       16
 1       17
 1       18
 1       19
 1       20
 1       21
 1       22
 1       23
 1       24
 1       25
 1       26
 1       27
 1       28
 1       29
 1       30
 1       31
 1       32
 1       33
 1       34
 1       35
 1       36
 1       37
 1       38
 1       39
 1       40
 1       41
 1       42
 1       43
 1       44
 1       45
 1       46
 1       47
 1       48
 1       49
 1       50
 1       51
 1       52
 1       53
 1       54
 1       55
 1       56
 1       57
 1       58
 1       59
 1       60
 1       61
 1       62
 1       63
 1       64
 1       65
 1       66
 1       67
 1       68
 1       69
 1       70
 1       71
 1       72
 1       73
 1       74
 1       75
 1       76
 1       77
 1       78
 1       79
 1       80
 1       81
 1       82
 1       83
 1       84
 1       85
 1       86
 1       87
 1       88
 1       89
 1       90
 1       91
 1       92
 1       93
 1       94
 1       95
 1       96
 1       97
 1       98
 1       99
 1      100
 1      101
 1      102
 1      103
 1      104
 1      105
 1      106
 1      107
 1      108
 1      109
 1      110
 1      111
 1      112
 1      113
 1      114
 1      115
 1      116
 1      117
 1      118
 1      119
 1      120
 1      121
 1      122
 1      123
 1      124
 1      125
 1      126
 1      127
 1      128
 1      129
 1      130
 1      131
 1      132
 1      133
 1      134
 1      135
 1      136
 1      137
 1      138
 1      139
 1      140
 1      141
 1      142
 1      143
 1      144
 1      145
 1      146
 1      147
 1      148
 1      149
 1      150
 1      151
 1      152
 1      153
 1      154
 1      155
 1      156
 1      157
 1      158
 1      159
 1      160
 1      161
 1      162
 1      163
 1      164
 1      165
 1      166
 1      167
 1      168
 1      169
 1      170
 1      171
 1      172
 1      173
 1      174
 1      175
 1      176
 1      177
 1      178
 1      179
 1      180
 1      181
 1      182
 1      183
 1      184
 1      185
 1      186
 1      187
 1      188
 1      189
 1      190
 1      191
 1      192
 1      193
 1      194
 1      195
 1      196
 1      197
 1      198
 1      199
 1      200
 1      201
 1      202
 1      203
 1      204
 1      205
 1      206
 1      207
 1      208
 1      209
 1      210
 1      211
 1      212
 1      213
 1      214
 1      215
 1      216
 1      217
 1      218
 1      219
 1      220
 1      221
 1      222
 1      223
 1      224
 1      225
 1      226
 1      227
 1      228
 1      229
 1      230
 1      231
 1      232
 1      233
 1      234
 1      235
 1      236
 1      237
 1      238
 1      239
 1      240
 1      241
 1      242
 1      243
 1      244
 1      245
 1      246
 1      247
 1      248
 1      249
 1      250
 1      251
 1      252
 1      253
 1      254
 1      255
 1      256
 1      257
 1      258
 1      259
 1      260
 1      261
 1      262
 1      263
 1      264
 1      265
 1      266
 1      267
 1      268
 1      269
 1      270
 1      271
 1      272
 1      273
 1      274
 1      275
 1      276
 1      277
 1      278
 1      279
 1      280
 1      281
 1      282
 1      283
 1      284
 1      285
 1      286
 1      287
POINT_DATA      288
SCALARS hemisphere int 1
LOOKUP_TABLE default
 1
 1
 1
 1
 1
 1
 1
 1
 1
 1
 1
 1
 1
 1
 1
 1
 1
 1
 1
 1
 1
 1
 1
 1
 1
 1
 1
 1
 1
 1
 1
 1
 1
 1
 1
 1
 1
 1
 1
 1
 1
 1
 1
 1
 1
 1
 1
 1
 1
 1
 1
 1
 1
 1
 1
 1
 1
 1
 1
 1
 1
 1
 1
 1
 1
 1
 1
 1
 1
 1
 1
 1
 1
 1
 1
 1
 1
 1
 1
 1
 1
 1
 1
 1
 1
 1
 1
 1
 1
 1
 1
 1
 1
 1
 1
 1
 1
 1
 1
 1
 1
 1
 1
 1
 1
 1
 1
 1
 1
 1
 1
 1
 1
 1
 1
 1
 1
 1
 1
 1
 1
 1
 1
 1
 1
 1
 1
 1
 1
 1
 1
 1
 1
 1
 1
 1
 1
 1
 1
 1
 1
 1
 1
 1
-1
-1
-1
-1
-1
-1
-1
-1
-1
-1
-1
-1
-1
-1
-1
-1
-1
-1
-1
-1
-1
-1
-1
-1
-1
-1
-1
-1
-1
-1
-1
-1
-1
-1
-1
-1
-1
-1
-1
-1
-1
-1
-1
-1
-1
-1
-1
-1
-1
-1
-1
-1
-1
-1
-1
-1
-1
-1
-1
-1
-1
-1
-1
-1
-1
-1
-1
-1
-1
-1
-1
-1
-1
-1
-1
-1
-1
-1
-1
-1
-1
-1
-1
-1
-1
-1
-1
-1
-1
-1
-1
-1
-1
-1
-1
-1
-1
-1
-1
-1
-1
-1
-1
-1
-1
-1
-1
-1
-1
-1
-1
-1
-1
-1
-1
-1
-1
-1
-1
-1
-1
-1
-1
-1
-1
-1
-1
-1
-1
-1
-1
-1
-1
-1
-1
-1
-1
-1
-1
-1
-1
-1
-1
-1
