<?xml version="1.0"?>
<VTKFile type="StructuredGrid" version="0.1" byte_order="LittleEndian" header_type="UInt32" compressor="vtkZLibDataCompressor">
  <StructuredGrid WholeExtent="0 60 0 20 0 20">
  <Piece Extent="0 60 0 20 0 20">
    <PointData Vectors="B_total">
      <DataArray type="Float32" Name="B_total" NumberOfComponents="3" format="ascii" RangeMin="0" RangeMax="58421.980929782534">
        -9.468855 -1.2587528 3.2485359 -9.793477 -1.2935001 3.3339322
        -10.127456 -1.3298728 3.4199464 -10.471066 -1.3680637 3.506325
        -10.824623 -1.4082929 3.5927813 -11.188492 -1.4508127 3.6789947
        -11.563088 -1.4959104 3.7646036 -11.948894 -1.5439129 3.8492002
        -12.346456 -1.5951899 3.9323235 -12.756401 -1.6501607 4.013451
        -13.179439 -1.7092977 4.09199 -13.616364 -1.7731332 4.1672654
        -14.068069 -1.8422655 4.238509 -14.535535 -1.917366 4.3048463
        -15.019841 -1.9991869 4.3652835 -15.522155 -2.0885696 4.4186916
        -16.043728 -2.1864552 4.463796 -16.58588 -2.293895 4.499165
        -17.149994 -2.4120634 4.523195 -17.737482 -2.5422726 4.53411
        -18.349773 -2.6859918 4.529956 -18.988285 -2.8448672 4.5086026
        -19.654385 -3.0207489 4.467749 -20.349377 -3.215721 4.4049335
        -21.07444 -3.4321406 4.317541 -21.830597 -3.6726797 4.2028193
        -22.618666 -3.9403877 4.057889 -23.439163 -4.238737 3.8797503
        -24.292217 -4.5717 3.6653116 -25.177412 -4.943821 3.4114165
        -26.093607 -5.3602934 3.114922 -27.038715 -5.8270392 2.7728138
        -28.009417 -6.3507853 2.382403 -29.000893 -6.939118 1.9415987
        -30.006542 -7.6005106 1.4492574 -31.017717 -8.344274 0.90558845
        -32.023514 -9.180385 0.3125714 -33.010532 -10.119078 -0.32566082
        -33.962673 -11.170094 -1.0024786 -34.86083 -12.341413 -1.708456
        -35.682594 -13.637278 -2.4309475 -36.402107 -15.05546 -3.1533718
        -36.99049 -16.58376 -3.8539217 -37.417595 -18.196163 -4.503648
        -37.655857 -19.849403 -5.0641804 -37.686867 -21.481178 -5.4859343
        -37.51035 -23.01146 -5.708083 -37.15397 -24.348122 -5.661559
        -36.68108 -25.397072 -5.2757034 -36.193115 -26.075447 -4.4875965
        -0.0031262636 -0.08255005 0.699101 -0.043783784 -0.08306885 0.688519
        -0.07989478 -0.09399128 0.6689944 -0.10789967 -0.11337852 0.642982
        -0.12588024 -0.13836002 0.61361766 -0.13370275 -0.16579533 0.58401513
        -0.13266754 -0.1929245 0.5566881 -0.12490082 -0.21775532 0.53325415
        -0.1127615 -0.23913288 0.5144467 -0.09839821 -0.2566285 0.5002758
        -0.08349562 -0.2703514 0.49028057 -9.511996 -1.1731132 3.2457035
        -9.838588 -1.2051252 3.3296967 -10.174739 -1.2386595 3.4141786
        -10.520753 -1.2738955 3.4988909 -10.876976 -1.3110386 3.5835443
        -11.24381 -1.3503239 3.6678138 -11.621708 -1.3920193 3.7513337
        -12.011199 -1.4364295 3.833692 -12.412878 -1.4839002 3.9144223
        -12.827427 -1.534823 3.9929948 -13.255614 -1.5896401 4.068808
        -13.698306 -1.6488509 4.1411767 -14.156466 -1.7130177 4.209317
        -14.63116 -1.7827725 4.272338 -15.123557 -1.8588262 4.329221
        -15.63493 -1.941976 4.378808 -16.166641 -2.0331175 4.419789
        -16.72014 -2.1332552 4.450684 -17.296951 -2.2435172 4.4698343
        -17.898643 -2.365171 4.475394 -18.526829 -2.4996457 4.465323
        -19.183128 -2.6485536 4.437385 -19.869156 -2.813722 4.389149
        -20.586475 -2.9972277 4.3179927 -21.336592 -3.2014444 4.2211018
        -22.120895 -3.4290912 4.095475 -22.940632 -3.6833084 3.9379203
        -23.796816 -3.9677198 3.74505 -24.69015 -4.2865295 3.5132823
        -25.620876 -4.6446238 3.2388544 -26.588606 -5.0476875 2.917862
        -27.592085 -5.5023327 2.5463538 -28.628925 -6.016242 2.1204731
        -29.695314 -6.598304 1.6366837 -30.785679 -7.2587442 1.092038
        -31.892345 -8.009185 0.48449653 -33.005146 -8.862579 -0.18677247
        -34.11089 -9.832908 -0.9210948 -35.192688 -10.934441 -1.7160074
        -36.228954 -12.180346 -2.566849 -37.19224 -13.580414 -3.466001
        -38.048096 -15.137583 -4.4013906 -38.754677 -16.843346 -5.353905
        -39.264233 -18.672276 -6.2936068 -39.527863 -20.576591 -7.175193
        -39.504677 -22.482567 -7.9341273 -39.17517 -24.290773 -8.48555
        -38.556736 -25.882555 -8.728274 -37.716698 -27.133512 -8.555182
        -36.777374 -27.932571 -7.8689528 -35.9085 -28.201912 -6.5990725
        -0.049584627 -0.05857849 0.76103735 -0.09661245 -0.07046127 0.735085
        -0.13262606 -0.093045235 0.69944143 -0.15500975 -0.12250233 0.6588726
        -0.16375446 -0.15472412 0.6180749 -0.16092205 -0.18619633 0.58072543
        -0.14965296 -0.21448612 0.5490835 -0.13325548 -0.23831081 0.5240433
        -0.11458302 -0.25734806 0.5054479 -0.09577274 -0.27189302 0.49251655
        -9.549949 -1.0832152 3.242266 -9.878312 -1.1122409 3.3249884
        -10.216421 -1.1426675 3.408085 -10.564605 -1.1746597 3.4912953
        -10.923241 -1.2084061 3.574326 -11.292758 -1.2441223 3.656849
        -11.673655 -1.2820543 3.7384956 -12.066493 -1.3224822 3.8188493
        -12.471918 -1.3657238 3.8974385 -12.89066 -1.4121397 3.9737282
        -13.323549 -1.4621376 4.047108 -13.771509 -1.5161785 4.1168823
        -14.235578 -1.5747823 4.1822557 -14.716899 -1.6385356 4.2423177
        -15.216733 -1.7080989 4.296029 -15.736445 -1.7842163 4.342205
        -16.277514 -1.8677254 4.3794985 -16.841509 -1.9595706 4.4063864
        -17.430092 -2.060817 4.421156 -18.045 -2.1726682 4.421893
        -18.688025 -2.2964883 4.4064746 -19.360998 -2.4338274 4.3725605
        -20.065777 -2.5864553 4.3175907 -20.804214 -2.7564013 4.238783
        -21.578154 -2.9459996 4.133122 -22.389389 -3.1579647 3.9973543
        -23.239632 -3.395447 3.8279672 -24.13046 -3.6621346 3.6211674
        -25.063232 -3.9623597 3.37286 -26.038973 -4.3012295 3.078631
        -27.058199 -4.684777 2.7337534 -28.120724 -5.1201463 2.3332295
        -29.225386 -5.615801 1.8718774 -30.369774 -6.181756 1.3444631
        -31.549862 -6.8298197 0.74586034 -32.7596 -7.573797 0.07121515
        -33.99035 -8.429594 -0.6839254 -35.230026 -9.415058 -1.5235096
        -36.461864 -10.549379 -2.450833 -37.662582 -11.851706 -3.4681163
        -38.80004 -13.338644 -4.575406 -39.830673 -15.020212 -5.7682123
        -40.697674 -16.894022 -7.033247 -41.331665 -18.937916 -8.342072
        -41.655983 -21.10197 -9.643171 -41.598705 -23.302036 -10.854605
        -41.11183 -25.418016 -11.860529 -40.195103 -27.300404 -12.515767
        -38.917683 -28.787558 -12.661295 -37.42836 -29.732197 -12.149645
        -35.94608 -30.030872 -10.873926 -34.729202 -29.646492 -8.790299
        -0.11517906 -0.056186676 0.81968117 -0.16106606 -0.08113861 0.77143
        -0.18861389 -0.11429405 0.71610975 -0.19810867 -0.1504755 0.66066694
        -0.1927166 -0.1853571 0.6103916 -0.17693043 -0.21610355 0.56838083
        -0.1552887 -0.24139309 0.53564 -0.13152313 -0.2610526 0.51171577
        -0.10824919 -0.27562952 0.49533045 -9.582838 -0.9896621 3.2383804
        -9.912772 -1.0154825 3.3199668 -10.252619 -1.0425662 3.4018285
        -10.602732 -1.0710611 3.4837017 -10.963514 -1.1011375 3.5652914
        -11.335426 -1.1329894 3.6462665 -11.718998 -1.1668388 3.7262554
        -12.11483 -1.2029377 3.8048377 -12.523609 -1.2415733 3.8815382
        -12.946114 -1.2830714 3.9558156 -13.383223 -1.3278005 4.027053
        -13.835922 -1.3761786 4.0945454 -14.305314 -1.4286772 4.157484
        -14.792616 -1.4858302 4.214945 -15.29917 -1.5482395 4.2658668
        -15.826436 -1.6165856 4.3090396 -16.375994 -1.6916372 4.3430843
        -16.949537 -1.7742636 4.366436 -17.54886 -1.8654498 4.3773317
        -18.175856 -1.9663142 4.373792 -18.832495 -2.078131 4.3536153
        -19.520823 -2.2023575 4.314362 -20.242939 -2.340668 4.253349
        -21.000994 -2.494996 4.167636 -21.797173 -2.6675847 4.0540123
        -22.633692 -2.861064 3.908973 -23.512762 -3.0785158 3.7286863
        -24.436565 -3.3235855 3.5089502 -25.40718 -3.600603 3.2451434
        -26.426498 -3.9147358 2.932178 -27.496092 -4.2721767 2.5644593
        -28.617025 -4.6803703 2.1358643 -29.789648 -5.1482887 1.6397544
        -31.01332 -5.68676 1.068981 -32.28609 -6.308825 0.41589636
        -33.604214 -7.030104 -0.32770395 -34.96145 -7.8690968 -1.1707106
        -36.347897 -8.847256 -2.1229053 -37.74814 -9.988611 -3.1950855
        -39.138447 -11.318563 -4.39878 -40.482952 -12.861364 -5.7449255
        -41.729156 -14.635655 -7.2406054 -42.803997 -16.647612 -8.882826
        -43.61272 -18.881546 -10.648771 -44.04399 -21.288883 -12.483087
        -43.984665 -23.77792 -14.284887 -43.346184 -26.20862 -15.899633
        -42.1 -28.398384 -17.12317 -40.312405 -30.14275 -17.723454
        -38.164112 -31.250883 -17.480246 -35.939655 -31.587376 -16.233158
        -33.982563 -31.105537 -13.920409 -32.62815 -29.857943 -10.590874
        -0.19179821 -0.08525658 0.85858154 -0.22524452 -0.11992264 0.78473186
        -0.23526096 -0.15778732 0.7110405 -0.22649956 -0.19384289 0.6449418
        -0.20525265 -0.22498226 0.590477 -0.17755604 -0.24990177 0.5487313
        -0.14811325 -0.2686715 0.5187392 -0.12004757 -0.28208637 0.49853182
        -9.610832 -0.8930112 3.2342873 -9.942131 -0.9154371 3.3148766
        -10.283491 -0.9389738 3.3956566 -10.635287 -0.96375155 3.4763615
        -10.997944 -0.98991984 3.5566943 -11.371951 -1.0176497 3.6363215
        -11.757866 -1.0471358 3.714869 -12.156323 -1.0786009 3.791914
        -12.568048 -1.1122977 3.8669767 -12.993859 -1.1485132 3.9395118
        -13.434684 -1.1875736 4.008896 -13.891562 -1.2298478 4.0744147
        -14.365653 -1.2757542 4.1352506 -14.858242 -1.3257663 4.1904635
        -15.370749 -1.3804196 4.2389755 -15.904716 -1.4403212 4.279552
        -16.461823 -1.5061584 4.310785 -17.04387 -1.5787117 4.331073
        -17.652784 -1.6588686 4.3386035 -18.2906 -1.7476407 4.3313413
        -18.959467 -1.8461871 4.3070087 -19.661627 -1.9558393 4.263075
        -20.399424 -2.0781364 4.1967397 -21.175293 -2.214868 4.1049166
        -21.991764 -2.3681238 3.9842057 -22.851475 -2.5403733 3.8308625
        -23.757143 -2.734534 3.6407447 -24.711567 -2.9540877 3.4092505
        -25.717587 -3.2032113 3.1312397 -26.77802 -3.4869452 2.8009472
        -27.89558 -3.8114016 2.411894 -29.072727 -4.1840296 1.9567981
        -30.311535 -4.613942 1.4274743 -31.613455 -5.112321 0.81471246
        -32.979057 -5.6928864 0.10807347 -34.407536 -6.372419 -0.7044365
        -35.89592 -7.1712637 -1.6368626 -37.437634 -8.11368 -2.7059388
        -39.020027 -9.22777 -3.9316661 -40.62054 -10.544615 -5.3373966
        -42.20118 -12.095949 -6.9484873 -43.701622 -13.909655 -8.788279
        -45.032295 -16.00216 -10.869753 -46.070335 -18.36728 -13.181652
        -46.6632 -20.962067 -15.669275 -46.64559 -23.692017 -18.213028
        -45.874153 -26.401354 -20.612461 -44.277992 -28.876173 -22.587143
        -41.912838 -30.867878 -23.805569 -38.995686 -32.138313 -23.944939
        -35.895016 -32.51602 -22.767834 -33.067165 -31.942955 -20.186722
        -30.956392 -30.490084 -16.285479 -25.579048 -24.226849 -9.5042925
        -0.2616682 -0.14678192 0.8609867 -0.2720251 -0.18207836 0.76616573
        -0.25935745 -0.21535587 0.6820402 -0.23209763 -0.24343872 0.6137395
        -0.19797707 -0.26521206 0.5622244 -0.16275024 -0.2809348 0.52585363
        -0.12998009 -0.29160404 0.50175726 -9.634114 -0.7937842 3.2302763
        -9.966573 -0.8126546 3.310012 -10.309219 -0.8324705 3.3898683
        -10.662445 -0.85334283 3.469577 -11.026699 -0.87539893 3.5488398
        -11.402493 -0.8987845 3.627322 -11.790407 -0.92366594 3.7046466
        -12.191109 -0.950233 3.7803884 -12.605354 -0.9787015 3.854065
        -13.033999 -1.0093169 3.9251266 -13.478012 -1.0423583 3.9929442
        -13.938478 -1.0781417 4.0567975 -14.416611 -1.1170263 4.1158586
        -14.913756 -1.1594188 4.169174 -15.431396 -1.2057809 4.215652
        -15.971152 -1.2566363 4.254037 -16.534792 -1.3125803 4.282893
        -17.124214 -1.3742901 4.3005867 -17.741463 -1.4425391 4.305265
        -18.388704 -1.5182118 4.294838 -19.06825 -1.6023256 4.2669625
        -19.782526 -1.6960553 4.2190247 -20.534103 -1.8007654 4.148119
        -21.325687 -1.918051 4.0510225 -22.16014 -2.0497866 3.9241645
        -23.040491 -2.1982014 3.763577 -23.96996 -2.365948 3.564829
        -24.951948 -2.5562165 3.32294 -25.990053 -2.7728667 3.0322776
        -27.08803 -3.0205994 2.6864252 -28.249752 -3.3051748 2.2780418
        -29.479156 -3.6336946 1.798693 -30.780148 -4.0149603 1.2386401
        -32.15648 -4.459923 0.5865519 -33.61154 -4.982235 -0.17093456
        -35.14796 -5.5988927 -1.0498706 -36.76676 -6.3309174 -2.0699391
        -38.4657 -7.2039623 -3.2556581 -40.236286 -8.248594 -4.637615
        -42.058926 -9.499847 -6.253147 -43.895554 -10.995367 -8.145358
        -45.679996 -12.771173 -10.358568 -47.30727 -14.853941 -12.927961
        -48.62539 -17.248753 -15.861081 -49.43575 -19.92226 -19.110416
        -49.51106 -22.783695 -22.540579 -48.638462 -25.66976 -25.900042
        -46.688725 -28.34371 -28.815098 -43.696358 -30.51971 -30.825731
        -39.91677 -31.916388 -31.47162 -35.82054 -32.328 -30.40987
        -32.00583 -31.68537 -27.517324 -29.054276 -30.077118 -22.926502
        -27.391571 -27.718998 -16.973751 -0.29232025 -0.20192719 0.93641853
        -0.30318642 -0.22811031 0.8197899 -0.28674698 -0.2528143 0.71733665
        -0.25378227 -0.27309036 0.63529587 -0.21375751 -0.28804398 0.5743933
        -0.17337513 -0.29808617 0.53206444 -0.13661289 -0.30416822 0.5044954
        -9.652864 -0.69247186 3.2266486 -9.986271 -0.7076534 3.3056796
        -10.329973 -0.72360384 3.3847737 -10.684376 -0.7404138 3.4636629
        -11.049944 -0.758187 3.5420463 -11.427208 -0.77704245 3.6195884
        -11.816772 -0.79711586 3.6959105 -12.219326 -0.8185622 3.770585
        -12.635653 -0.84155786 3.8431273 -13.066642 -0.86630374 3.9129841
        -13.513294 -0.8930281 3.9795227 -13.976735 -0.9219902 4.0420156
        -14.458221 -0.95348483 4.099627 -14.959149 -0.9878465 4.151395
        -15.481059 -1.0254552 4.196212 -16.025639 -1.0667436 4.2328053
        -16.594728 -1.1122037 4.2597184 -17.190315 -1.1623975 4.2752886
        -17.81454 -1.2179681 4.277626 -18.469694 -1.2796538 4.264598
        -19.158218 -1.3483067 4.233803 -19.882713 -1.4249144 4.182554
        -20.645947 -1.5106293 4.1078544 -21.450867 -1.6068052 4.0063643
        -22.300627 -1.7150395 3.874361 -23.198635 -1.837245 3.7076776
        -24.148552 -1.9757091 3.5016263 -25.15435 -2.1332018 3.2508888
        -26.220331 -2.3130975 2.9493837 -27.351137 -2.5195384 2.5900998
        -28.551773 -2.7576447 2.1648993 -29.827606 -3.033789 1.6642647
        -31.184366 -3.3559527 1.0769811 -32.62813 -3.7341862 0.3896616
        -34.165234 -4.181179 -0.41392982 -35.80194 -4.7129636 -1.3539095
        -37.543667 -5.3496966 -2.4557087 -39.39317 -6.116445 -3.7519512
        -41.347218 -7.0437727 -5.2844934 -43.390728 -8.167718 -7.105977
        -45.487694 -9.528523 -9.279501 -47.5686 -11.16707 -11.874061
        -49.515472 -13.11767 -14.952443 -51.148407 -15.395826 -18.548021
        -52.2212 -17.980223 -22.628172 -52.43824 -20.790787 -27.047192
        -51.50554 -23.668962 -31.501358 -49.220745 -26.37203 -35.511185
        -45.58525 -28.595785 -38.462547 -40.891804 -30.032902 -39.72432
        -35.72685 -30.4551 -38.819542 -30.85482 -29.785873 -35.579433
        -27.018593 -28.126244 -30.198776 -24.746662 -25.718437 -23.158947
        -23.11895 -21.797613 -14.300482 -0.32169342 -0.2976761 0.86229897
        -0.30283356 -0.3067932 0.744504 -0.2657814 -0.31379032 0.65122795
        -0.22158813 -0.31793308 0.58293104 -0.17774391 -0.3195219 0.53615427
        -0.1384573 -0.3192172 0.50614357 -9.667237 -0.5895367 3.2236834
        -10.001384 -0.6009229 3.302163 -10.345907 -0.6128924 3.3806624
        -10.701228 -0.6255142 3.4589114 -11.067822 -0.63886756 3.5366094
        -11.446236 -0.65304303 3.6134193 -11.83709 -0.66814435 3.688961
        -12.241096 -0.68428975 3.7628062 -12.659056 -0.70161414 3.8344674
        -13.091884 -0.72027117 3.9033887 -13.540608 -0.74043554 3.968934
        -14.006387 -0.762306 4.030371 -14.490513 -0.78610885 4.0868583
        -14.994422 -0.81210107 4.137425 -15.519699 -0.8405753 4.1809516
        -16.068087 -0.8718651 4.216154 -16.641487 -0.906351 4.241556
        -17.241955 -0.9444679 4.255472 -17.871714 -0.9867157 4.255985
        -18.533154 -1.0336691 4.240923 -19.228828 -1.085994 4.2078404
        -19.96148 -1.1444644 4.1539903 -20.734037 -1.2099872 4.076301
        -21.549652 -1.283629 3.9713347 -22.411741 -1.3666633 3.8352432
        -23.324013 -1.4606082 3.6636968 -24.290518 -1.5672967 3.4517903
        -25.315714 -1.688958 3.193922 -26.404516 -1.8283235 2.8836293
        -27.562357 -1.9887664 2.5133934 -28.79524 -2.174485 2.0743854
        -30.10982 -2.3907437 1.5561469 -31.513493 -2.6441913 0.9461527
        -33.014496 -2.9432764 0.22918046 -34.62191 -3.2987747 -0.61361605
        -36.34553 -3.7244544 -1.6060944 -38.195084 -4.237849 -2.7790627
        -40.178455 -4.861086 -4.172847 -42.29806 -5.6216216 -5.840222
        -44.544243 -6.5525417 -7.848975 -46.88464 -7.6918535 -10.282537
        -49.24884 -9.079813 -13.235769 -51.50924 -10.752932 -16.801758
        -53.461586 -12.733015 -21.044249 -54.814873 -15.010205 -25.951849
        -55.20539 -17.520903 -31.375397 -54.253956 -20.126146 -36.96324
        -51.676765 -22.602062 -42.127403 -47.432762 -24.658478 -46.087193
        -41.847244 -25.995367 -48.020645 -35.62638 -26.386896 -47.298016
        -29.711498 -25.757555 -43.69811 -25.016907 -24.209427 -37.487347
        -22.177069 -21.984158 -29.311895 -21.422653 -19.381098 -19.966179
        -0.3198452 -0.38690186 0.88201714 -0.30141258 -0.37390423 0.75619125
        -0.2635708 -0.36269855 0.6572466 -0.21835709 -0.35264015 0.5854883
        -0.17383766 -0.3435731 0.53693104 -0.13427162 -0.33555436 0.5061388
        -9.67736 -0.48541534 3.2216158 -10.012034 -0.4929265 3.2997015
        -10.357146 -0.5008284 3.377776 -10.713123 -0.5091677 3.455569
        -11.080453 -0.5179979 3.5327783 -11.459691 -0.5273806 3.6090665
        -11.851471 -0.5373858 3.6840525 -12.256517 -0.5480939 3.7573068
        -12.67565 -0.5595964 3.8283405 -13.1098 -0.57199776 3.8965962
        -13.560017 -0.58541685 3.9614348 -14.027479 -0.5999891 4.022121
        -14.513509 -0.6158688 4.0778074 -15.019567 -0.6332316 4.1275177
        -15.547279 -0.65227777 4.170126 -16.098421 -0.67323613 4.2043357
        -16.67494 -0.696368 4.228658 -17.278948 -0.7219732 4.241392
        -17.912727 -0.7503964 4.2405972 -18.578737 -0.78203577 4.2240753
        -19.279625 -0.8173533 4.1893463 -20.01823 -0.8568883 4.1336203
        -20.797613 -0.901274 4.0537663 -21.621077 -0.9512579 3.9462767
        -22.492233 -1.0077363 3.8072066 -23.415026 -1.0717806 3.632103
        -24.39381 -1.14469 3.415896 -25.433422 -1.2280512 3.152766
        -26.53926 -1.3238156 2.8359597 -27.717371 -1.4344053 2.457563
        -28.97456 -1.5628496 2.0082092 -30.318521 -1.7129675 1.4767005
        -31.757996 -1.88961 0.84946936 -33.30299 -2.0989785 0.10982144
        -34.964897 -2.3490417 -0.7632032 -36.756447 -2.650054 -1.7965254
        -38.69109 -3.015191 -3.0254114 -40.781235 -3.4612494 -4.496655
        -43.03444 -4.0093164 -6.2723236 -45.446312 -4.6851788 -8.433323
        -47.988686 -5.5190325 -11.081039 -50.591965 -6.5437384 -14.333764
        -53.122284 -7.7905116 -18.312868 -55.35666 -9.280611 -23.111908
        -56.966972 -11.011913 -28.74275 -57.530235 -12.940585 -35.058475
        -56.589897 -14.96195 -41.66896 -53.78472 -16.900198 -47.88954
        -49.029327 -18.521166 -52.78403 -42.67392 -19.57847 -55.347477
        -35.5327 -19.885134 -54.801174 -28.710356 -19.379002 -50.8726
        -23.279415 -18.1462 -43.898884 -19.969282 -16.388746 -34.686836
        -19.020744 -14.353567 -24.215164 -0.29172325 -0.48448086 0.8687401
        -0.2779312 -0.4458313 0.7462654 -0.24394989 -0.41392994 0.6499233
        -0.20205879 -0.38811016 0.5803251 -0.16044044 -0.3675487 0.53354454
        -0.12341022 -0.35140896 0.50415754 -9.683326 -0.3805218 3.2206204
        -10.018315 -0.38410512 3.298473 -10.363778 -0.3878818 3.3762958
        -10.720149 -0.3918756 3.4538183 -11.087918 -0.39611393 3.530738
        -11.467651 -0.40062815 3.6067166 -11.859988 -0.40545428 3.6813731
        -12.26566 -0.4106335 3.754277 -12.6855 -0.41621286 3.8249383
        -13.120446 -0.42224622 3.8927984 -13.571563 -0.42879495 3.9572165
        -14.040043 -0.43592924 4.0174556 -14.527223 -0.44372907 4.072665
        -15.034583 -0.45228592 4.1218653 -15.563769 -0.4617043 4.1639247
        -16.116583 -0.47210398 4.1975408 -16.694998 -0.4836223 4.2212167
        -17.301157 -0.49641708 4.23324 -17.937386 -0.51067096 4.2316575
        -18.606188 -0.5265952 4.2142553 -19.310263 -0.544436 4.1785293
        -20.052517 -0.56448203 4.1216626 -20.83609 -0.58707345 4.0404906
        -21.664387 -0.612613 3.9314575 -22.541143 -0.64158684 3.7905588
        -23.470451 -0.674577 3.6132622 -24.456865 -0.7122921 3.3943942
        -25.505466 -0.7555999 3.1279955 -26.621965 -0.8055721 2.807123
        -27.812822 -0.8635426 2.4236097 -29.085361 -0.93118435 1.9677389
        -30.447964 -1.0106131 1.4278232 -31.910284 -1.1045216 0.78961474
        -33.48351 -1.2163634 0.035441577 -35.180595 -1.3505867 -0.8570732
        -37.016293 -1.5129312 -1.9169114 -39.006626 -1.7107955 -3.182362
        -41.16718 -1.953643 -4.7046394 -43.509224 -2.2534118 -6.552228
        -46.032272 -2.62478 -8.815188 -48.711525 -3.0850735 -11.607598
        -51.4787 -3.6533659 -15.064588 -54.1965 -4.3481064 -19.328238
        -56.630024 -5.182534 -24.514639 -58.426056 -6.156978 -30.654325
        -59.120167 -7.2481127 -37.60463 -58.20004 -8.397317 -44.95018
        -55.246983 -9.503681 -51.937458 -50.140812 -10.430577 -57.51574
        -43.247383 -11.032904 -60.54269 -35.459 -11.201208 -60.126766
        -28.00001 -10.900023 -55.956688 -22.058657 -10.180884 -48.424244
        -18.431997 -9.164824 -38.458393 -17.365105 -7.9983177 -27.175995
        -4.628292 -2.063113 -3.091053 -0.23158836 -0.51043844 0.71248627
        -0.2065754 -0.45937514 0.6282549 -0.1726532 -0.41909122 0.5670824
        -0.13773727 -0.38811147 0.5259671 -0.10612297 -0.3647256 0.5002494
        -9.685187 -0.27525377 3.220804 -10.02028 -0.27488306 3.2985861
        -10.365858 -0.27450594 3.3763323 -10.722358 -0.27412307 3.4537718
        -11.090272 -0.27373523 3.5306022 -11.470167 -0.27334338 3.6064851
        -11.862688 -0.27294898 3.6810389 -12.268568 -0.27255344 3.753833
        -12.688642 -0.27215892 3.8243773 -13.123855 -0.27176782 3.8921123
        -13.575272 -0.27138326 3.956397 -14.044094 -0.27100894 4.0164933
        -14.531661 -0.2706496 4.07155 -15.039462 -0.27031085 4.120585
        -15.569149 -0.2699997 4.1624656 -16.122532 -0.26972476 4.195887
        -16.701595 -0.26949644 4.2193494 -17.308495 -0.26932767 4.231136
        -17.94557 -0.26923415 4.229289 -18.61534 -0.26923552 4.2115874
        -19.32052 -0.2693556 4.17552 -20.064053 -0.2696239 4.118259
        -20.849104 -0.2700769 4.0366254 -21.679111 -0.27075863 3.927047
        -22.557863 -0.27172685 3.785498 -23.48951 -0.2730506 3.6074128
        -24.478682 -0.27481598 3.3875797 -25.530554 -0.27713117 3.119984
        -26.650967 -0.28013074 2.7976112 -27.84653 -0.28398383 2.4121933
        -29.12479 -0.28890112 1.9538767 -30.49439 -0.2951477 1.4107816
        -31.965353 -0.30305505 0.7683883 -33.549335 -0.3130372 0.008635759
        -35.259914 -0.32561007 -0.89141893 -37.112663 -0.3414126 -1.961581
        -39.12462 -0.36122656 -3.2413516 -41.31266 -0.38599312 -4.783719
        -43.689533 -0.4168176 -6.659746 -46.256374 -0.45494086 -8.963182
        -48.98976 -0.5016663 -11.813234 -51.822014 -0.55820966 -15.351852
        -54.614548 -0.6254025 -19.72957 -57.127766 -0.7033452 -25.07172
        -58.998466 -0.7908428 -31.416603 -59.745518 -0.8847425 -38.623505
        -58.834038 -0.97918797 -46.266914 -55.821964 -1.0651013 -53.5652
        -50.57482 -1.1307435 -59.42041 -43.464737 -1.1645107 -62.633457
        -35.415955 -1.1603168 -62.266426 -27.702944 -1.1183257 -57.992794
        -21.561203 -1.0428398 -50.22811 -17.814167 -0.9456574 -39.953
        -16.7074 -0.84028846 -28.341503 -7.0251656 -0.6736218 -5.86693
        -0.16669655 -0.5550976 0.65849495 -0.15471458 -0.49083903 0.59458256
        -0.13258362 -0.44043866 0.54722977 -0.10750961 -0.4021224 0.51507425
        -0.0836916 -0.37361705 0.49493933 -9.682967 -0.17000009 3.2222023
        -10.017949 -0.16567586 3.300077 -10.363404 -0.16114554 3.377922
        -10.719766 -0.1563865 3.4554667 -11.087528 -0.15137303 3.5324085
        -11.467255 -0.1460757 3.6084096 -11.859586 -0.14046113 3.683088
        -12.265253 -0.13449134 3.7560136 -12.685089 -0.1281232 3.8266966
        -13.120034 -0.12130786 3.8945775 -13.571153 -0.11398995 3.9590156
        -14.039639 -0.10610694 4.0192733 -14.526826 -0.09758789 4.0745006
        -15.034203 -0.0883527 4.1237164 -15.563411 -0.07831062 4.1657887
        -16.116255 -0.067358956 4.1994147 -16.694712 -0.055381153 4.223097
        -17.300928 -0.04224465 4.2351203 -17.937227 -0.027798496 4.233532
        -18.606127 -0.011869466 4.216115 -19.310322 0.0057411604 4.180363
        -20.052736 0.025263784 4.123457 -20.836514 0.04696691 4.0422263
        -21.665075 0.07116634 3.93311 -22.542168 0.098234445 3.7920976
        -23.471912 0.12861815 3.6146443 -24.458883 0.16285649 3.395564
        -25.508202 0.20160612 3.1288776 -26.625628 0.24567556 2.807616
        -27.817675 0.29606953 2.4235737 -29.091755 0.3540504 1.9669816
        -30.45635 0.42122024 1.4260783 -31.92126 0.49963385 0.7865091
        -33.49784 0.59194684 0.03045094 -35.19928 0.70161986 -0.8646954
        -37.04062 0.8331801 -1.9282242 -39.038235 0.99254775 -3.1988795
        -41.208145 1.1874282 -4.7285223 -43.562065 1.4277136 -6.5865526
        -46.099987 1.7258284 -8.864298 -48.797405 2.096777 -11.677542
        -51.585995 2.55756 -15.163577 -54.327656 3.1253645 -19.467026
        -56.785492 3.8136256 -24.706528 -58.602562 4.6253057 -30.91433
        -59.308826 5.543309 -37.947304 -58.385002 6.519987 -45.385586
        -55.405956 7.4709153 -52.46568 -50.24854 8.280245 -58.12167
        -43.282074 8.822908 -61.19429 -35.410046 9.000146 -60.779583
        -27.87439 8.776585 -56.56418 -21.877739 8.195042 -48.949593
        -18.223425 7.3561416 -38.88231 -17.1549 6.382576 -27.497234
        -4.4562473 0.7888317 -3.2842617 -0.092157364 -0.5711639 0.59342194
        -0.09490776 -0.5027354 0.5543575 -0.086465836 -0.44867826 0.5238962
        -0.07291031 -0.40747833 0.5025954 -0.058241844 -0.3768543 0.48912
        -9.676645 -0.06514946 3.224779 -10.011303 -0.056899063 3.3029082
        -10.356399 -0.04824515 3.381027 -10.712358 -0.039142318 3.4588642
        -11.079674 -0.029538553 3.5361183 -11.458898 -0.019374397 3.6124506
        -11.850667 -0.008582116 3.687481 -12.255704 0.0029153368 3.760779
        -12.674829 0.015205641 3.8318555 -13.108977 0.0283884 3.9001534
        -13.559197 0.04257646 3.9650316 -14.02667 0.057898074 4.025756
        -14.512717 0.07449833 4.081477 -15.018806 0.09254203 4.131219
        -15.546559 0.11221594 4.173854 -16.097761 0.13373226 4.2080836
        -16.67436 0.1573322 4.232418 -17.278479 0.18329088 4.245154
        -17.9124 0.2119227 4.244347 -18.578598 0.24358876 4.2277975
        -19.279728 0.27870548 4.193019 -20.018646 0.31775612 4.1372147
        -20.798431 0.36130512 4.057246 -21.62241 0.4100173 3.949596
        -22.49423 0.4646803 3.810302 -23.417873 0.5262383 3.6348925
        -24.397747 0.59583056 3.418271 -25.438759 0.674845 3.15458
        -26.546396 0.76498854 2.837014 -27.726828 0.8683794 2.4575887
        -28.987007 0.9876697 2.0068347 -30.334827 1.1262128 1.4734108
        -31.779305 1.2882857 0.8435491 -33.33076 1.4793841 0.10026395
        -35.00103 1.7066162 -0.7778174 -36.80337 1.9792004 -1.818211
        -38.751892 2.3090816 -3.0570319 -40.859764 2.7116299 -4.5422745
        -43.135387 3.2063537 -6.3376923 -45.57515 3.8173895 -8.526512
        -48.151325 4.573389 -11.213182 -50.79412 5.5060863 -14.519878
        -53.368004 6.646452 -18.57238 -55.64618 8.016921 -23.468596
        -57.293556 9.618554 -29.22306 -57.876915 11.413343 -35.687527
        -56.92727 13.305492 -42.463306 -54.072258 15.131193 -48.847878
        -49.2218 16.670155 -53.878353 -42.73323 17.68842 -56.520626
        -35.441547 18.005587 -55.97481 -28.48077 17.559284 -51.965145
        -22.948784 16.428982 -44.84575 -19.58702 14.803555 -35.453705
        -18.633863 12.914329 -24.799011 0.013908386 -0.6313896 0.53912354
        -0.018903732 -0.5571985 0.52900696 -0.03520584 -0.49399805 0.5145054
        -0.03993225 -0.44310427 0.5009384 -0.037792206 -0.40375113 0.49059105
        -0.032322884 -0.37419868 0.48383045 -9.666166 0.03890054 3.228425
        -10.000288 0.051023193 3.3069701 -10.344788 0.06374189 3.3855355
        -10.700084 0.077124484 3.4638512 -11.066655 0.09124865 3.541616
        -11.445049 0.10620309 3.6184921 -11.835887 0.12208906 3.6941004
        -12.239877 0.13902174 3.7680109 -12.657826 0.15713227 3.8397365
        -13.090651 0.17656957 3.9087207 -13.539379 0.19750263 3.9743261
        -14.005172 0.22012328 4.035821 -14.489324 0.24464887 4.092361
        -14.993275 0.271326 4.142975 -15.518613 0.30043444 4.186542
        -16.06709 0.3322919 4.221775 -16.640606 0.36725953 4.247196
        -17.241232 0.40574932 4.261117 -17.8712 0.44823185 4.261615
        -18.532911 0.49524722 4.2465134 -19.228941 0.54741836 4.2133594
        -19.962046 0.6054671 4.1593976 -20.735191 0.6702361 4.0815434
        -21.551552 0.74271584 3.9763446 -22.414602 0.8240801 3.8399308
        -23.328102 0.9157305 3.6679432 -24.296179 1.0193555 3.4554396
        -25.323391 1.1370069 3.1967628 -26.41478 1.2711987 2.8853793
        -27.57594 1.4250385 2.5136685 -28.81309 1.6024005 2.0726593