<?xml version="1.0"?>
<VTKFile type="StructuredGrid" version="0.1" byte_order="LittleEndian" header_type="UInt32" compressor="vtkZLibDataCompressor">
  <StructuredGrid WholeExtent="0 60 0 20 0 20">
  <Piece Extent="0 60 0 20 0 20">
    <PointData Vectors="B_total">
      <DataArray type="Float32" Name="B_total" NumberOfComponents="3" format="ascii" RangeMin="0" RangeMax="56948.14187715998">
        -9.168671 -1.1333811 3.2714953 -9.4865265 -1.164901 3.355855
        -9.813885 -1.198102 3.4408052 -10.151049 -1.2331868 3.5261166
        -10.498361 -1.2703872 3.611533 -10.856215 -1.3099666 3.6967669
        -11.225061 -1.3522243 3.781497 -11.605414 -1.3974996 3.8653603
        -11.997856 -1.446176 3.9479477 -12.403052 -1.4986875 4.028795
        -12.821751 -1.5555227 4.107372 -13.254791 -1.6172316 4.183075
        -13.703112 -1.6844326 4.2552123 -14.167746 -1.7578201 4.322992
        -14.649828 -1.8381717 4.3855057 -15.150585 -1.926358 4.4417176
        -15.671337 -2.0233524 4.490446 -16.213474 -2.1302419 4.5303516
        -16.778454 -2.2482405 4.5599256 -17.367777 -2.3787026 4.577482
        -17.982962 -2.5231411 4.581149 -18.625519 -2.6832452 4.5688715
        -19.296926 -2.8609078 4.5384145 -19.998602 -3.0582519 4.4873657
        -20.731855 -3.2776663 4.4131455 -21.497875 -3.521851 4.313012
        -22.297644 -3.7938588 4.1840787 -23.131905 -4.0971637 4.0232964
        -24.001066 -4.435723 3.8274813 -24.905048 -4.8140454 3.5933216
        -25.843145 -5.237276 3.3174334 -26.813782 -5.7112684 2.9964557
        -27.81427 -6.2426634 2.627208 -28.840559 -6.8389645 2.2069397
        -29.88696 -7.5085716 1.7336382 -30.945911 -8.260792 1.2063888
        -32.007797 -9.105735 0.6257356 -33.060707 -10.054026 -0.006013036
        -34.09018 -11.116234 -0.6845397 -35.078785 -12.301803 -1.4033351
        -36.005577 -13.617334 -2.1534038 -36.84553 -15.064041 -2.9226313
        -37.56939 -16.63434 -3.6945016 -38.144707 -18.307888 -4.4460177
        -38.53901 -20.047672 -5.145019 -38.725956 -21.797468 -5.7477417
        -38.694305 -23.481997 -6.197894 -38.45862 -25.011543 -6.428792
        -38.068527 -26.29129 -6.36936 -37.613304 -27.234741 -5.9535947
        -23.231771 -17.426771 -3.022276 -0.080049336 -0.31702137 0.46230412
        -0.075457335 -0.3422804 0.45590734 -0.06527114 -0.36439896 0.45109463
        -0.051148415 -0.38161469 0.44862223 -0.035134315 -0.39305687 0.44875598
        -0.019155502 -0.398777 0.45126987 -0.0046806335 -0.39952278 0.45562267
        0.0073828697 -0.39636898 0.46114194 0.016687393 -0.390512 0.46717095
        0.023285389 -0.38302374 0.47318548 -9.216861 -1.0583055 3.2761047
        -9.537073 -1.0874537 3.3593607 -9.867013 -1.1181853 3.443087
        -10.20701 -1.1506896 3.5270495 -10.557442 -1.1851822 3.6109877
        -10.918738 -1.2219088 3.6946099 -11.291389 -1.2611485 3.7775896
        -11.675955 -1.3032178 3.8595586 -12.073071 -1.3484746 3.9401004
        -12.483457 -1.3973244 4.018743 -12.907928 -1.4502244 4.094946
        -13.347396 -1.5076904 4.168092 -13.802877 -1.5703033 4.237472
        -14.275497 -1.6387165 4.3022723 -14.766489 -1.7136643 4.3615575
        -15.277193 -1.7959712 4.414255 -15.809049 -1.8865621 4.459141
        -16.363588 -1.986475 4.49482 -16.942423 -2.096873 4.519718
        -17.547226 -2.2190619 4.532065 -18.179705 -2.354508 4.529893
        -18.841593 -2.5048604 4.5110264 -19.53462 -2.67198 4.473086
        -20.260479 -2.857971 4.4134846 -21.020815 -3.0652254 4.3294334
        -21.817184 -3.2964716 4.217931 -22.65101 -3.55483 4.075775
        -23.523544 -3.8438969 3.8995275 -24.43577 -4.1678214 3.6855183
        -25.388279 -4.531405 3.4298387 -26.381107 -4.940214 3.1283617
        -27.413523 -5.400705 2.776812 -28.48377 -5.9203606 2.370889
        -29.588793 -6.5078397 1.9064653 -30.723942 -7.1731176 1.3798338
        -31.882687 -7.9276 0.7879895 -33.056263 -8.784149 0.12888604
        -34.23323 -9.756916 -0.5983621 -35.39878 -10.860824 -1.3933275
        -36.533707 -12.110468 -2.2540567 -37.613003 -13.518158 -3.1765566
        -38.604237 -15.090773 -4.153549 -39.466457 -16.825369 -5.1720495
        -40.150604 -18.703606 -6.2095037 -40.603195 -20.685852 -7.228836
        -40.77457 -22.70651 -8.173684 -40.632053 -24.672745 -8.965895
        -40.17637 -26.46912 -9.507955 -39.45704 -27.969788 -9.69211
        -38.58079 -29.057129 -9.415605 -37.70755 -29.643267 -8.598979
        -26.477335 -21.289707 -5.013584 -0.10354328 -0.34570312 0.4389634
        -0.08828163 -0.3753338 0.4292555 -0.06752443 -0.39784336 0.42387533
        -0.044525623 -0.4122038 0.4231434 -0.022192478 -0.4187231 0.4265375
        -0.0026054382 -0.4186468 0.43300796 0.013119698 -0.4136505 0.44133925
        0.024709225 -0.405447 0.4504174 0.03245783 -0.39550495 0.4593857
        -9.262604 -0.97996294 3.2812595 -9.585043 -1.0064706 3.3635356
        -9.917413 -1.034441 3.4461722 -10.260077 -1.0640478 3.5289314
        -10.613437 -1.0954887 3.611548 -10.977958 -1.128989 3.6937258
        -11.35417 -1.1648043 3.7751336 -11.742673 -1.2032254 3.8553975
        -12.144152 -1.2445809 3.9340942 -12.55938 -1.2892435 4.0107427
        -12.989231 -1.3376341 4.084793 -13.434686 -1.3902282 4.1556134
        -13.896837 -1.4475627 4.2224784 -14.376895 -1.5102421 4.2845516
        -14.876186 -1.5789483 4.3408704 -15.396158 -1.6544487 4.390328
        -15.938373 -1.7376075 4.431655 -16.504494 -1.8293971 4.4634047
        -17.096285 -1.9309131 4.483934 -17.715584 -2.0433905 4.491395
        -18.364302 -2.1682239 4.4837193 -19.04439 -2.3069918 4.458614
        -19.757826 -2.4614863 4.413553 -20.506607 -2.6337516 4.3457785
        -21.292719 -2.8261285 4.252281 -22.11811 -3.0413089 4.129808
        -22.984697 -3.2824113 3.9748216 -23.894281 -3.5530612 3.7834802
        -24.848501 -3.857494 3.5516064 -25.84872 -4.200679 3.274653
        -26.895876 -4.5884595 2.9476914 -27.990274 -5.0277295 2.565442
        -29.131367 -5.5266314 2.1223414 -30.317463 -6.0947866 1.612668
        -31.545452 -6.7435575 1.0306948 -32.810448 -7.486289 0.37082928
        -34.10533 -8.338507 -0.3722943 -35.420048 -9.317934 -1.2038131
        -36.740437 -10.444129 -2.1286764 -38.04645 -11.737478 -3.1515036
        -39.30962 -13.217108 -4.275903 -40.489967 -14.89731 -5.5025454
        -41.5333 -16.782085 -6.8253117 -42.370472 -18.85786 -8.225024
        -42.92099 -21.085041 -9.661154 -43.10344 -23.390282 -11.063199
        -42.85396 -25.66279 -12.325309 -42.150753 -27.758131 -13.30809
        -41.038956 -29.513128 -13.851714 -39.64592 -30.771282 -13.800088
        -38.17753 -31.413746 -13.03118 -36.89167 -31.385847 -11.4834
        -18.098969 -15.529032 -4.37523 -0.11853361 -0.38619614 0.4001379
        -0.08837986 -0.41515923 0.39017773 -0.055749893 -0.43284035 0.3881693
        -0.02496624 -0.44001007 0.39299202 0.0011396408 -0.43868637 0.40269184
        0.021284103 -0.43134594 0.4151652 0.03540802 -0.4203415 0.42860675
        0.044207573 -0.40758848 0.44169688 -9.30514 -0.89883685 3.286931
        -9.629633 -0.922468 3.3683574 -9.964248 -0.94742084 3.4500463
        -10.309365 -0.9738513 3.5317554 -10.665419 -1.0019373 3.613216
        -11.032904 -1.031881 3.6941278 -11.412381 -1.0639126 3.7741542
        -11.804492 -1.0982932 3.8529165 -12.209965 -1.1353189 3.9299846
        -12.629622 -1.1753258 4.0048685 -13.064392 -1.2186933 4.0770087
        -13.515318 -1.2658514 4.1457605 -13.983564 -1.3172858 4.2103815
        -14.470416 -1.3735454 4.2700143 -14.977294 -1.43525 4.3236694
        -15.505743 -1.5030991 4.370207 -16.057436 -1.5778828 4.4083157
        -16.634167 -1.6604935 4.4364967 -17.23784 -1.7519403 4.453044
        -17.870468 -1.8533657 4.4560323 -18.534138 -1.9660658 4.4432974
        -19.231022 -2.091516 4.4124327 -19.963356 -2.231402 4.360773
        -20.733427 -2.3876579 4.285388 -21.543575 -2.5625172 4.1830587
        -22.396166 -2.7585678 4.0502744 -23.293606 -2.978835 3.8831687
        -24.238293 -3.2268705 3.6774945 -25.232578 -3.5068674 3.428555
        -26.278675 -3.8238027 3.1311455 -27.378536 -4.18361 2.7795022
        -28.533682 -4.5933895 2.3672752 -29.74501 -5.061671 1.8875302
        -31.012547 -5.5987244 1.3327727 -32.33519 -6.2169323 0.6949613
        -33.710354 -6.9311905 -0.034541965 -35.133408 -7.7592964 -0.8651424
        -36.596737 -8.722195 -1.8073201 -38.088093 -9.843884 -2.8729966
        -39.587925 -11.150623 -4.075651 -41.065468 -12.66893 -5.4295707
        -42.473766 -14.42177 -6.947331 -43.744648 -16.422256 -8.634258
        -44.785854 -18.664616 -10.479109 -45.4837 -21.112843 -12.441032
        -45.715412 -23.689257 -14.435246 -45.37366 -26.266766 -16.322039
        -44.402283 -28.67087 -17.906668 -42.83496 -30.696648 -18.95681
        -40.822067 -32.141968 -19.239643 -38.629147 -32.850433 -18.571012
        -36.5991 -32.749954 -16.860014 -35.086357 -31.870785 -14.129766
        -0.15750742 -0.39557838 0.3625412 -0.1143961 -0.43193817 0.34573936
        -0.06885052 -0.45319366 0.34195137 -0.027125359 -0.46081448 0.34898567
        0.0070323944 -0.45784855 0.36341476 0.03231144 -0.4477787 0.38176346
        0.049088478 -0.43370056 0.40121627 0.05872059 -0.4180169 0.4198351
        -9.343709 -0.8153476 3.2929184 -9.670054 -0.8358988 3.3736267
        -10.006687 -0.85761267 3.4545114 -10.354011 -0.8806259 3.535327
        -10.712481 -0.9050943 3.6158013 -11.082622 -0.93119526 3.6956298
        -11.465023 -0.95913064 3.774472 -11.860363 -0.98912954 3.8519435
        -12.269405 -1.0214523 3.9276083 -12.69302 -1.0563937 4.000969
        -13.132184 -1.0942883 4.071456 -13.587996 -1.1355149 4.138413
        -14.061683 -1.1805022 4.2010818 -14.554603 -1.2297355 4.2585855
        -15.068255 -1.283764 4.3099103 -15.60428 -1.3432093 4.353884
        -16.16445 -1.4087749 4.3891587 -16.750679 -1.481258 4.414186
        -17.365005 -1.5615631 4.4272027 -18.00959 -1.6507183 4.4262085
        -18.686708 -1.7498949 4.408954 -19.398733 -1.8604327 4.3729243
        -20.148144 -1.9838703 4.315323 -20.93752 -2.1219842 4.233058
        -21.769537 -2.2768378 4.122712 -22.646978 -2.4508417 3.980524
        -23.572746 -2.6468337 3.8023162 -24.549845 -2.8681731 3.583443
        -25.581354 -3.1188657 3.318698 -26.670382 -3.403714 3.0022254
        -27.819971 -3.728509 2.6274195 -29.032974 -4.1002736 2.1868372
        -30.31192 -4.5275655 1.6721139 -31.658825 -5.02086 1.0738683
        -33.075005 -5.5930195 0.3815301 -34.560753 -6.2598343 -0.41694987
        -36.114723 -7.0406055 -1.3356292 -37.732838 -7.958659 -2.3913107
        -39.406136 -9.04156 -3.6044135 -41.1172 -10.320674 -4.9995613
        -42.83471 -11.829477 -6.6050396 -44.506115 -13.599811 -8.449795
        -46.04958 -15.655107 -10.556231 -47.347824 -17.999947 -12.927195
        -48.2486 -20.605944 -15.526888 -48.577812 -23.395943 -18.257952
        -48.17083 -26.231434 -20.941833 -46.922256 -28.911003 -23.31359
        -44.844116 -31.188166 -25.04357 -42.110542 -32.812485 -25.792025
        -39.06163 -33.586433 -25.286451 -36.151173 -33.418343 -23.394403
        -33.849575 -32.348175 -20.158579 -32.539413 -30.533234 -15.776278
        -0.14594746 -0.44558525 0.28947258 -0.08371925 -0.47036362 0.2833376
        -0.028373718 -0.47818375 0.2936306 0.015370369 -0.4733696 0.3146429
        0.046352386 -0.46051693 0.3409109 0.06575489 -0.44349766 0.3682394
        0.07586861 -0.42516518 0.3939159 -9.377601 -0.72986776 3.298915
        -9.705564 -0.7471671 3.3790333 -10.043957 -0.7654547 3.459255
        -10.393202 -0.78484666 3.5393314 -10.753778 -0.8054751 3.6189876
        -11.126228 -0.8274906 3.6979153 -11.511171 -0.8510646 3.7757707
        -11.909316 -0.8763918 3.852164 -12.321458 -0.9036933 3.9266546
        -12.748505 -0.9332202 3.9987378 -13.19148 -0.9652574 4.0678353
        -13.651528 -1.0001278 4.1332808 -14.129933 -1.0381979 4.1943007
        -14.628117 -1.0798824 4.250003 -15.147648 -1.1256523 4.29935
        -15.690246 -1.1760414 4.341143 -16.257778 -1.2316548 4.373998
        -16.852262 -1.2931811 4.3963265 -17.47586 -1.3614029 4.40631
        -18.13087 -1.437213 4.401887 -18.819725 -1.5216326 4.380726
        -19.544996 -1.615834 4.3402166 -20.309381 -1.7211707 4.2774444
        -21.115725 -1.8392123 4.189171 -21.967035 -1.9717919 4.071796
        -22.866478 -2.1210668 3.9213295 -23.817438 -2.28959 3.733305
        -24.8235 -2.480408 3.502705 -25.888464 -2.6971812 3.223845
        -27.016329 -2.9443388 2.890248 -28.211235 -3.2272735 2.4944983
        -29.477417 -3.5525987 2.0280838 -30.819113 -3.9284756 1.4812226
        -32.2405 -4.3650327 0.84261835 -33.745564 -4.8749003 0.099090695
        -35.337894 -5.4738617 -0.76502466 -37.020084 -6.1815844 -1.7688167
        -38.79249 -7.022364 -2.9361038 -40.650726 -8.025675 -4.2969804
        -42.581226 -9.22615 -5.8891253 -44.55414 -10.662367 -7.75778
        -46.513447 -12.373516 -9.9526205 -48.365204 -14.392727 -12.519035
        -49.966957 -16.73587 -15.481174 -51.12434 -19.385387 -18.81537
        -51.60359 -22.27061 -22.41614 -51.169285 -25.249962 -26.063591
        -49.650604 -28.10442 -29.408857 -47.02517 -30.554539 -31.998766
        -43.489086 -32.307613 -33.352314 -39.47097 -33.12812 -33.077457
        -35.562073 -32.90586 -30.98519 -32.37758 -31.690063 -27.14612
        -30.406433 -29.67098 -21.858421 -12.506448 -11.5056 -6.313101
        -0.10008812 -0.4802475 0.21284485 -0.028568268 -0.48810768 0.2275753
        0.026041985 -0.48165607 0.2571621 0.06309605 -0.46655083 0.29345608
        0.08492756 -0.4473467 0.33048582 0.09507847 -0.42719746 0.3646586
        -9.406187 -0.6427392 3.3045704 -9.735506 -0.6566452 3.384221
        -10.075376 -0.67135257 3.4639156 -10.42623 -0.6869552 3.543403
        -10.788566 -0.7035606 3.6224046 -11.162948 -0.7212907 3.7006106
        -11.550015 -0.7402846 3.777673 -11.9505 -0.76070046 3.8531985
        -12.36523 -0.7827179 3.9267416 -12.795142 -0.8065412 3.997793
        -13.241296 -0.832402 4.065766 -13.704879 -0.8605638 4.129985
        -14.18722 -0.8913252 4.189666 -14.689794 -0.9250252 4.2439003
        -15.214231 -0.9620491 4.2916327 -15.762318 -1.0028343 4.331641
        -16.336 -1.0478781 4.3625126 -16.937387 -1.097747 4.382621
        -17.568743 -1.1530867 4.3901043 -18.232485 -1.2146361 4.382845
        -18.931192 -1.2832426 4.358445 -19.667593 -1.3598831 4.31421
        -20.444588 -1.4456887 4.247124 -21.26526 -1.5419776 4.1538215
        -22.132904 -1.6502959 4.0305448 -23.051035 -1.7724729 3.873102
        -24.023472 -1.9106852 3.6767726 -25.054329 -2.0675457 3.4362087
        -26.14808 -2.2462153 3.1452997 -27.309551 -2.4505455 2.797008
        -28.54393 -2.6852667 2.3831792 -29.856771 -2.9562325 1.8943175
        -31.253998 -3.27074 1.3193092 -32.741932 -3.6379545 0.64504045
        -34.327312 -4.069452 -0.14420307 -36.017147 -4.5799026 -1.067656
        -37.818283 -5.187889 -2.1494732 -39.736065 -5.9167867 -3.420691
        -41.771603 -6.7955675 -4.92158 -43.916527 -7.85916 -6.703891
        -46.144424 -9.147802 -8.831691 -48.398266 -10.704387 -11.378538
        -50.574593 -12.568483 -14.41761 -52.507675 -14.765437 -18.000988
        -53.960663 -17.289564 -22.12482 -54.635696 -20.082268 -26.682085
        -54.21674 -23.010065 -31.412968 -52.45371 -25.853125 -35.876072
        -49.27675 -28.319033 -39.47303 -44.899456 -30.092474 -41.55031
        -39.84833 -30.914654 -41.566147 -34.873447 -30.663395 -39.259987
        -30.758192 -29.39389 -34.738216 -28.112244 -27.317184 -28.42662
        -27.243114 -24.728798 -20.917055 -0.11750221 -0.47808552 0.13370514
        -0.027952194 -0.48598766 0.15391159 0.038295746 -0.47873974 0.19375706
        0.08146286 -0.46271038 0.24174595 0.10543537 -0.44283438 0.28985548
        0.11520767 -0.42235136 0.33353662 -9.428944 -0.55428934 3.3095467
        -9.759337 -0.56469023 3.388846 -10.100373 -0.5756955 3.4681423
        -10.4525 -0.58737624 3.5471835 -10.816228 -0.59981364 3.6256886
        -11.192135 -0.61309993 3.7033453 -11.580881 -0.6273407 3.7798033
        -11.983214 -0.6426554 3.8546665 -12.399985 -0.65918034 3.9274852
        -12.832157 -0.6770704 3.9977453 -13.280819 -0.6965017 4.064855
        -13.747189 -0.71767396 4.1281314 -14.232635 -0.74081475 4.186781
        -14.738672 -0.7661821 4.239883 -15.266979 -0.79406995 4.286368
        -15.819399 -0.82481205 4.3249946 -16.39794 -0.85878915 4.3543267
        -17.004782 -0.89643526 4.372709 -17.642271 -0.93824625 4.378243
        -18.312927 -0.984791 4.3687677 -19.01944 -1.0367234 4.3418307
        -19.764677 -1.0947992 4.294671 -20.551699 -1.1598966 4.2241898
        -21.38379 -1.2330413 4.126915 -22.264467 -1.3154447 3.998969
        -23.197561 -1.4085412 3.8359892 -24.187243 -1.5140469 3.6330452
        -25.238089 -1.634032 3.3845167 -26.355133 -1.7710135 3.0839374
        -27.543926 -1.9280778 2.7238002 -28.810572 -2.109038 2.2953238
        -30.161789 -2.318648 1.7881702 -31.605019 -2.5628843 1.190075
        -33.14854 -2.8493183 0.48632354 -34.801617 -3.1876113 -0.34105527
        -36.574524 -3.590148 -1.3145225 -38.478184 -4.0728106 -2.462902
        -40.522938 -4.65587 -3.823975 -42.715576 -5.3648634 -5.4477186
        -45.05361 -6.2312145 -7.399582 -47.51534 -7.292047 -9.762411
        -50.04488 -8.588358 -12.634276 -52.532463 -10.160209 -16.11811
        -54.792816 -12.037318 -20.297546 -56.550323 -14.223679 -25.194332
        -57.444794 -16.676275 -30.706884 -57.07779 -19.282116 -36.54128
        -55.113625 -21.843536 -42.164288 -51.426125 -24.08736 -46.824226
        -46.239807 -25.71101 -49.678493 -40.179432 -26.46168 -50.017437
        -34.16118 -26.218922 -47.499264 -29.145191 -25.037111 -42.270947
        -25.86523 -23.123323 -34.902187 -24.666811 -20.764076 -26.172537
        -0.13544083 -0.45955658 0.05267334 -0.027275085 -0.46779537 0.07871246
        0.05060196 -0.46129036 0.12950039 0.099609375 -0.44646025 0.18978977
        0.12539864 -0.42813015 0.24939108 0.13456535 -0.40938473 0.3027792
        -9.445459 -0.4648439 3.313555 -9.776628 -0.47165668 3.392612
        -10.118506 -0.47886956 3.4716332 -10.471552 -0.4865298 3.550365
        -10.836283 -0.4946917 3.628525 -11.213289 -0.50341696 3.705799
        -11.603243 -0.51277584 3.781835 -12.006907 -0.5228485 3.8562348
        -12.425149 -0.53372616 3.928546 -12.858949 -0.5455125 3.998251
        -13.309416 -0.55832547 4.0647545 -13.777793 -0.57229936 4.1273675
        -14.265472 -0.5875868 4.18529 -14.774005 -0.60436153 4.2375927
        -15.305099 -0.6228213 4.283196 -15.860639 -0.6431913 4.3208437
        -16.44268 -0.66572833 4.3490834 -17.053455 -0.69072604 4.366238
        -17.695372 -0.7185204 4.3703847 -18.37102 -0.74949723 4.359328
        -19.083172 -0.7841015 4.3305774 -19.834799 -0.8228482 4.281323
        -20.629084 -0.8663375 4.208404 -21.469454 -0.91527086 4.108274
        -22.359608 -0.970483 3.9769611 -23.303595 -1.0329612 3.8099792
        -24.305864 -1.1038926 3.6022422 -25.371338 -1.1847138 3.347927
        -26.50549 -1.2771791 3.0403008 -27.714417 -1.3834472 2.6715007
        -29.00494 -1.5061995 2.2322714 -30.3847 -1.6487954 1.711629
        -31.862339 -1.8154829 1.0964199 -33.44771 -2.0116785 0.37067825
        -35.152126 -2.244344 -0.48534584 -36.98855 -2.5224736 -1.4966984
        -38.971348 -2.857707 -2.6959777 -41.115124 -3.265051 -4.126507
        -43.431725 -3.7636395 -5.846334 -45.924088 -4.37735 -7.932513
        -48.57541 -5.134903 -10.484091 -51.33219 -6.068782 -13.620793
        -54.081184 -7.21194 -17.472576 -56.622902 -8.590928 -22.153046
        -58.650574 -10.214108 -27.710268 -59.751427 -12.054671 -34.05271
        -59.45427 -14.031219 -40.861534 -57.344505 -15.993699 -47.52475
        -53.240368 -17.727966 -53.151676 -47.370632 -18.991306 -56.722603
        -40.445667 -19.57785 -57.367393 -33.531746 -19.388702 -54.665516
        -27.749355 -18.46777 -48.8027 -23.942862 -16.983044 -40.486454
        -22.488098 -15.165513 -30.673353 -10.432261 -6.113422 -9.010128
        -0.027793884 -0.4316535 0.010732651 0.060728073 -0.42787123 0.071460724
        0.11502457 -0.4168501 0.14296436 0.1424408 -0.4026959 0.2129898
        0.151083 -0.38802028 0.27514744 -9.4554405 -0.37473345 3.3163788
        -9.787075 -0.3779035 3.3952978 -10.12946 -0.38126436 3.4741619
        -10.483056 -0.38483936 3.5527155 -10.848388 -0.388655 3.6306767
        -11.226055 -0.3927418 3.707729 -11.616732 -0.3971343 3.7835202
        -12.021194 -0.40187216 3.8576505 -12.440317 -0.40700048 3.9296658
        -12.875092 -0.41257057 3.9990466 -13.32664 -0.41864106 4.0651956
        -13.796219 -0.4252786 4.1274195 -14.285239 -0.43255922 4.184915
        -14.795263 -0.4405695 4.236748 -15.328029 -0.44940808 4.2818313
        -15.885439 -0.45918778 4.318901 -16.469578 -0.4700372 4.3464947
        -17.082708 -0.48210377 4.3629227 -17.727282 -0.4955565 4.3662457
        -18.405922 -0.5105899 4.3542495 -19.121462 -0.5274288 4.3244195
        -19.876928 -0.54633397 4.2739153 -20.67558 -0.56761014 4.199541
        -21.520933 -0.5916126 4.097704 -22.416796 -0.61877 3.9643726
        -23.367357 -0.64958626 3.7949886 -24.377235 -0.68467003 3.5843713
        -25.451569 -0.7247608 3.3265724 -26.596102 -0.77076274 3.0146947
        -27.817286 -0.8237924 2.640657 -29.122387 -0.88524044 2.1949093
        -30.51964 -0.9568552 1.6660664 -32.01845 -1.0408533 1.0404155
        -33.629692 -1.1400721 0.30120367 -35.36603 -1.2581728 -0.572456
        -37.242203 -1.3999035 -1.60727 -39.27486 -1.5714412 -2.8382888
        -41.481514 -1.7807922 -4.312467 -43.87751 -2.0382366 -6.0932064
        -46.469673 -2.3567014 -8.265341 -49.244907 -2.751893 -10.938942
        -52.152016 -3.2418199 -14.248724 -55.076363 -3.8451037 -18.343708
        -57.81 -4.577427 -23.359303 -60.026215 -5.4451685 -29.363766
        -61.276936 -6.4360905 -36.275246 -61.040596 -7.508235 -43.760624
        -58.846138 -8.581194 -51.15482 -54.47003 -9.537224 -57.469173
        -48.14084 -10.240187 -61.555748 -40.627342 -10.572939 -62.426277
        -33.101795 -10.478944 -59.601154 -26.798412 -9.981876 -53.294094
        -22.639423 -9.174349 -44.313343 -21.020416 -8.185437 -33.74409
        -19.01223 -6.2592707 -19.670712 -0.03087616 -0.37932467 -0.040239334
        0.06625557 -0.38010097 0.027423859 0.12504578 -0.37531233 0.10706329
        0.15409851 -0.3677559 0.18480587 0.16267776 -0.3592751 0.25353432
        -9.458715 -0.28429523 3.3178852 -9.7905 -0.28379586 3.3967674
        -10.133045 -0.28327575 3.4755883 -10.486817 -0.2827338 3.5540922
        -10.852343 -0.28216878 3.6319966 -11.230219 -0.2815794 3.708985
        -11.621128 -0.28096437 3.784705 -12.025846 -0.28032222 3.8587556
        -12.445249 -0.27965155 3.9306831 -12.880335 -0.27895072 3.999967
        -13.332227 -0.27821818 4.066009 -13.80219 -0.2774522 4.1281147
        -14.291636 -0.27665114 4.1854806 -14.802137 -0.2758132 4.2371693
        -15.335434 -0.27493662 4.282092 -15.89344 -0.27401963 4.3189836
        -16.478249 -0.27306065 4.346376 -17.09213 -0.27205795 4.3625765
        -17.737547 -0.27101028 4.3656416 -18.417143 -0.2699164 4.353349
        -19.133762 -0.26877555 4.3231783 -19.890453 -0.26758754 4.2722783
        -20.690495 -0.2663527 4.1974416 -21.537434 -0.26506937 4.095062
        -22.435122 -0.26374546 3.9610882 -23.387781 -0.26238236 3.790939
        -24.400091 -0.26098594 3.579403 -25.47726 -0.25956428 3.3204932
        -26.625128 -0.25812823 3.00726 -27.850254 -0.2566919 2.6315522
        -29.16006 -0.2552734 2.1837282 -30.56298 -0.2538942 1.6522695
        -32.068687 -0.25258163 1.0232865 -33.688396 -0.2513667 0.27976865
        -35.43525 -0.25028488 -0.5995468 -37.3246 -0.2493765 -1.6419122
        -39.373917 -0.24868359 -2.8832054 -41.60176 -0.24824992 -4.3716097
        -44.024754 -0.2481185 -6.172365 -46.651176 -0.24831878 -8.37301
        -49.46939 -0.24886316 -11.087481 -52.429234 -0.24973038 -14.455843
        -55.4159 -0.25081447 -18.634045 -58.21881 -0.25202093 -23.765568
        -60.50454 -0.2533908 -29.926506 -61.812683 -0.25542814 -37.039375
        -61.603607 -0.25938767 -44.76708 -59.38549 -0.26708758 -52.42647
        -54.91864 -0.28000212 -58.993927 -48.4301 -0.2981556 -63.274593
        -40.70829 -0.32017392 -64.23568 -32.963215 -0.34520164 -61.374477
        -26.471474 -0.37058774 -54.913563 -22.184229 -0.39085448 -45.697205
        -20.504515 -0.40382883 -34.857594 -21.30927 -0.40911126 -23.449043
        -0.037412643 -0.31664994 -0.065942764 0.06539345 -0.322929 0.00390625
        0.12761116 -0.3258239 0.08694744 0.15844536 -0.3263883 0.16829586
        0.16771889 -0.32548115 0.2403369 -9.455227 -0.19387084 3.3180294
        -9.78684 -0.18970321 3.3969743 -10.129203 -0.18530342 3.475865
        -10.482774 -0.18064593 3.554446 -10.848079 -0.17570174 3.6324348
        -11.225714 -0.17043798 3.709516 -11.616358 -0.16481727 3.7853365
        -12.020783 -0.1587973 3.8594968 -12.439865 -0.15233003 3.931543
        -12.874594 -0.14536095 4.0009556 -13.326092 -0.13782835 4.0671372
        -13.795614 -0.12966229 4.1293955 -14.28457 -0.12078337 4.186926
        -14.794524 -0.11110155 4.2387953 -15.327209 -0.10051467 4.2839165
        -15.88453 -0.08890671 4.3210263 -16.468569 -0.0761456 4.3486624
        -17.081587 -0.06208104 4.3651347 -17.726028 -0.04654134 4.3685055
        -18.404524 -0.029329926 4.3565617 -19.119898 -0.010220706 4.3267884
        -19.875175 0.011047343 4.276348 -20.673609 0.03477765 4.2020454
        -21.518713 0.061328724 4.1002917 -22.414295 0.091112554 3.9670584
        -23.36453 0.1246297 3.7977905 -24.374037 0.16247621 3.5873137
        -25.44794 0.20537397 3.3296876 -26.591982 0.2542045 3.018025
        -27.812601 0.31005415 2.6442595 -29.117058 0.37427562 2.1988597
        -30.513573 0.44856948 1.6704639 -32.011547 0.5350958 1.0453922
        -33.62184 0.6366237 0.30693245 -35.357136 0.75673634 -0.5657443
        -37.232162 0.90009445 -1.5992755 -39.263607 1.0727775 -2.8286223
        -41.469044 1.2826915 -4.300629 -43.863895 1.5400155 -6.078576
        -46.455162 1.8575912 -8.247166 -49.22998 2.2510812 -10.916349
        -52.137478 2.7385106 -14.220787 -55.063484 3.3386877 -18.30959
        -57.800537 4.0674753 -23.318485 -60.022423 4.9312215 -29.31648
        -61.281387 5.916828 -36.222992 -61.055725 6.980149 -43.706707
        -58.873634 8.0375595 -51.104668 -54.509735 8.968704 -57.429745
        -48.18984 9.637353 -61.53417 -40.679512 9.928562 -62.42753
        -33.149338 9.787816 -59.626427 -26.835794 9.244105 -53.34019
        -22.663675 8.398879 -44.373684 -21.03103 7.385635 -33.81093
        -19.014687 5.4753084 -19.730684 -0.047332764 -0.25235224 -0.062316895
        0.05754471 -0.2636788 0.004304886 0.12189293 -0.27418685 0.08523083
        0.15462303 -0.28301334 0.16540337 0.1654129 -0.2899164 0.2369628
        -9.445032 -0.10380188 3.3168545 -9.77616 -0.09599492 3.3959632
        -10.117993 -0.08774696 3.4750376 -10.470989 -0.07900834 3.553824
        -10.835666 -0.06972259 3.6320395 -11.212612 -0.05982551 3.709371
        -11.602499 -0.049244188 3.7854655 -12.006089 -0.037895765 3.8599253
        -12.42425 -0.025686275 3.9322982 -12.857959 -0.012508973 4.002067
        -13.308324 0.0017571459 4.068636 -13.776588 0.017249502 4.131316
        -14.264143 0.034123916 4.189309 -14.772533 0.05255734 4.2416844
        -15.30347 0.07275067 4.287363 -15.858833 0.09493232 4.3250904
        -16.440676 0.11936197 4.353413 -17.051224 0.14633581 4.370657
        -17.692884 0.17619205 4.374899 -18.368242 0.20931794 4.363945
        -19.080069 0.2461589 4.335308 -19.831322 0.28722957 4.2861795
        -20.62518 0.33312756 4.2134027 -21.465061 0.38455582 4.113438
        -22.354658 0.44233143 3.9823165 -23.29801 0.50743586 3.8155622
        -24.299547 0.58104134 3.6081014 -25.364182 0.664564 3.3541248
        -26.49737 0.75973034 3.046919 -27.705198 0.8686648 2.6786497
        -28.994463 0.9940032 2.2400951 -30.372793 1.13905 1.7203183
        -31.84881 1.307984 1.1062261 -33.43236 1.5061408 0.3819353
        -35.134777 1.7403852 -0.47220373 -36.969025 2.0196 -1.4811041
        -38.949543 2.3552995 -2.6772008 -41.09104 2.762351 -4.1036215
        -43.40556 3.2597446 -5.818195 -45.89635 3.87122 -7.897745
        -48.547066 4.6253924 -10.441135 -51.30489 5.554715 -13.568052
        -54.057365 6.692259 -17.40865 -56.605938 8.064774 -22.077227
        -58.644745 9.680719 -27.623314 -59.761433 11.512865 -33.957684
        -59.48448 13.478443 -40.76483 -57.397575 15.425256 -47.436302
        -53.3155 17.137358 -53.084023 -47.46202 18.371866 -56.688263
        -40.542416 18.924246 -57.37497 -33.620697 18.697668 -54.716656
        -27.819738 17.740162 -48.891293 -23.988695 16.225313 -40.600574
        -22.508528 14.387845 -30.798983 -10.459288 5.4255 -9.083588
        -0.059329987 -0.1955061 -0.03087616 0.04373169 -0.21010542 0.027809143
        0.10861588 -0.22660208 0.10155869 0.14309692 -0.24238825 0.17605019
        0.15604305 -0.2561376 0.24347258 -9.4283085 -0.014425263 3.3144917
        -9.75864 -0.0030358979 3.3938684 -10.099608 0.008998259 3.4732444
        -10.451662 0.021750433 3.5523667 -10.815308 0.035303988 3.6309555
        -11.191126 0.04975372 3.7086978 -11.579772 0.0652074 3.7852433
        -11.981995 0.081787296 3.8601964 -12.398645 0.0996324 3.9331076
        -12.830683 0.11890033 4.003463 -13.279195 0.13976993 4.0706706
        -13.745399 0.1624441 4.134048 -14.230657 0.1871531 4.1928015
        -14.736486 0.214158 4.246012 -15.264561 0.24375537 4.29261
        -15.816717 0.27628186 4.3313546 -16.394964 0.31212047 4.360811
        -17.001472 0.351707 4.379325 -17.638588 0.39553893 4.3850007
        -18.308819 0.44418544 4.3756776 -19.014849 0.49830002 4.3489084
        -19.759537 0.5586365 4.3019347 -20.545935 0.62606883 4.2316628
        -21.377312 0.70162153 4.1346292 -22.257175 0.78648716 4.0069637
        -23.18934 0.88209003 3.8443162 -24.17796 0.99012786 3.6417723
        -25.227589 1.1126454 3.3937335 -26.343246 1.2521263 3.0937607
        -27.530455 1.4116136 2.734385 -28.795296 1.5948663 2.306873