# vtk DataFile Version 3.0
T01 + IGRF magnetic field in GSW coordinates
ASCII
DATASET STRUCTURED_GRID
DIMENSIONS     61    21    21
POINTS    26901 float
     -50.000000     -10.000000     -10.000000
     -49.000000     -10.000000     -10.000000
     -48.000000     -10.000000     -10.000000
     -47.000000     -10.000000     -10.000000
     -46.000000     -10.000000     -10.000000
     -45.000000     -10.000000     -10.000000
     -44.000000     -10.000000     -10.000000
     -43.000000     -10.000000     -10.000000
     -42.000000     -10.000000     -10.000000
     -41.000000     -10.000000     -10.000000
     -40.000000     -10.000000     -10.000000
     -39.000000     -10.000000     -10.000000
     -38.000000     -10.000000     -10.000000
     -37.000000     -10.000000     -10.000000
     -36.000000     -10.000000     -10.000000
     -35.000000     -10.000000     -10.000000
     -34.000000     -10.000000     -10.000000
     -33.000000     -10.000000     -10.000000
     -32.000000     -10.000000     -10.000000
     -31.000000     -10.000000     -10.000000
     -30.000000     -10.000000     -10.000000
     -29.000000     -10.000000     -10.000000
     -28.000000     -10.000000     -10.000000
     -27.000000     -10.000000     -10.000000
     -26.000000     -10.000000     -10.000000
     -25.000000     -10.000000     -10.000000
     -24.000000     -10.000000     -10.000000
     -23.000000     -10.000000     -10.000000
     -22.000000     -10.000000     -10.000000
     -21.000000     -10.000000     -10.000000
     -20.000000     -10.000000     -10.000000
     -19.000000     -10.000000     -10.000000
     -18.000000     -10.000000     -10.000000
     -17.000000     -10.000000     -10.000000
     -16.000000     -10.000000     -10.000000
     -15.000000     -10.000000     -10.000000
     -14.000000     -10.000000     -10.000000
     -13.000000     -10.000000     -10.000000
     -12.000000     -10.000000     -10.000000
     -11.000000     -10.000000     -10.000000
     -10.000000     -10.000000     -10.000000
      -9.000000     -10.000000     -10.000000
      -8.000000     -10.000000     -10.000000
      -7.000000     -10.000000     -10.000000
      -6.000000     -10.000000     -10.000000
      -5.000000     -10.000000     -10.000000
      -4.000000     -10.000000     -10.000000
      -3.000000     -10.000000     -10.000000
      -2.000000     -10.000000     -10.000000
      -1.000000     -10.000000     -10.000000
       0.000000     -10.000000     -10.000000
       1.000000     -10.000000     -10.000000
       2.000000     -10.000000     -10.000000
       3.000000     -10.000000     -10.000000
       4.000000     -10.000000     -10.000000
       5.000000     -10.000000     -10.000000
       6.000000     -10.000000     -10.000000
       7.000000     -10.000000     -10.000000
       8.000000     -10.000000     -10.000000
       9.000000     -10.000000     -10.000000
      10.000000     -10.000000     -10.000000
     -50.000000      -9.000000     -10.000000
     -49.000000      -9.000000     -10.000000
     -48.000000      -9.000000     -10.000000
     -47.000000      -9.000000     -10.000000
     -46.000000      -9.000000     -10.000000
     -45.000000      -9.000000     -10.000000
     -44.000000      -9.000000     -10.000000
     -43.000000      -9.000000     -10.000000
     -42.000000      -9.000000     -10.000000
     -41.000000      -9.000000     -10.000000
     -40.000000      -9.000000     -10.000000
     -39.000000      -9.000000     -10.000000
     -38.000000      -9.000000     -10.000000
     -37.000000      -9.000000     -10.000000
     -36.000000      -9.000000     -10.000000
     -35.000000      -9.000000     -10.000000
     -34.000000      -9.000000     -10.000000
     -33.000000      -9.000000     -10.000000
     -32.000000      -9.000000     -10.000000
     -31.000000      -9.000000     -10.000000
     -30.000000      -9.000000     -10.000000
     -29.000000      -9.000000     -10.000000
     -28.000000      -9.000000     -10.000000
     -27.000000      -9.000000     -10.000000
     -26.000000      -9.000000     -10.000000
     -25.000000      -9.000000     -10.000000
     -24.000000      -9.000000     -10.000000
     -23.000000      -9.000000     -10.000000
     -22.000000      -9.000000     -10.000000
     -21.000000      -9.000000     -10.000000
     -20.000000      -9.000000     -10.000000
     -19.000000      -9.000000     -10.000000
     -18.000000      -9.000000     -10.000000
     -17.000000      -9.000000     -10.000000
     -16.000000      -9.000000     -10.000000
     -15.000000      -9.000000     -10.000000
     -14.000000      -9.000000     -10.000000
     -13.000000      -9.000000     -10.000000
     -12.000000      -9.000000     -10.000000
     -11.000000      -9.000000     -10.000000
     -10.000000      -9.000000     -10.000000
      -9.000000      -9.000000     -10.000000
      -8.000000      -9.000000     -10.000000
      -7.000000      -9.000000     -10.000000
      -6.000000      -9.000000     -10.000000
      -5.000000      -9.000000     -10.000000
      -4.000000      -9.000000     -10.000000
      -3.000000      -9.000000     -10.000000
      -2.000000      -9.000000     -10.000000
      -1.000000      -9.000000     -10.000000
       0.000000      -9.000000     -10.000000
       1.000000      -9.000000     -10.000000
       2.000000      -9.000000     -10.000000
       3.000000      -9.000000     -10.000000
       4.000000      -9.000000     -10.000000
       5.000000      -9.000000     -10.000000
       6.000000      -9.000000     -10.000000
       7.000000      -9.000000     -10.000000
       8.000000      -9.000000     -10.000000
       9.000000      -9.000000     -10.000000
      10.000000      -9.000000     -10.000000
     -50.000000      -8.000000     -10.000000
     -49.000000      -8.000000     -10.000000
     -48.000000      -8.000000     -10.000000
     -47.000000      -8.000000     -10.000000
     -46.000000      -8.000000     -10.000000
     -45.000000      -8.000000     -10.000000
     -44.000000      -8.000000     -10.000000
     -43.000000      -8.000000     -10.000000
     -42.000000      -8.000000     -10.000000
     -41.000000      -8.000000     -10.000000
     -40.000000      -8.000000     -10.000000
     -39.000000      -8.000000     -10.000000
     -38.000000      -8.000000     -10.000000
     -37.000000      -8.000000     -10.000000
     -36.000000      -8.000000     -10.000000
     -35.000000      -8.000000     -10.000000
     -34.000000      -8.000000     -10.000000
     -33.000000      -8.000000     -10.000000
     -32.000000      -8.000000     -10.000000
     -31.000000      -8.000000     -10.000000
     -30.000000      -8.000000     -10.000000
     -29.000000      -8.000000     -10.000000
     -28.000000      -8.000000     -10.000000
     -27.000000      -8.000000     -10.000000
     -26.000000      -8.000000     -10.000000
     -25.000000      -8.000000     -10.000000
     -24.000000      -8.000000     -10.000000
     -23.000000      -8.000000     -10.000000
     -22.000000      -8.000000     -10.000000
     -21.000000      -8.000000     -10.000000
     -20.000000      -8.000000     -10.000000
     -19.000000      -8.000000     -10.000000
     -18.000000      -8.000000     -10.000000
     -17.000000      -8.000000     -10.000000
     -16.000000      -8.000000     -10.000000
     -15.000000      -8.000000     -10.000000
     -14.000000      -8.000000     -10.000000
     -13.000000      -8.000000     -10.000000
     -12.000000      -8.000000     -10.000000
     -11.000000      -8.000000     -10.000000
     -10.000000      -8.000000     -10.000000
      -9.000000      -8.000000     -10.000000
      -8.000000      -8.000000     -10.000000
      -7.000000      -8.000000     -10.000000
      -6.000000      -8.000000     -10.000000
      -5.000000      -8.000000     -10.000000
      -4.000000      -8.000000     -10.000000
      -3.000000      -8.000000     -10.000000
      -2.000000      -8.000000     -10.000000
      -1.000000      -8.000000     -10.000000
       0.000000      -8.000000     -10.000000
       1.000000      -8.000000     -10.000000
       2.000000      -8.000000     -10.000000
       3.000000      -8.000000     -10.000000
       4.000000      -8.000000     -10.000000
       5.000000      -8.000000     -10.000000
       6.000000      -8.000000     -10.000000
       7.000000      -8.000000     -10.000000
       8.000000      -8.000000     -10.000000
       9.000000      -8.000000     -10.000000
      10.000000      -8.000000     -10.000000
     -50.000000      -7.000000     -10.000000
     -49.000000      -7.000000     -10.000000
     -48.000000      -7.000000     -10.000000
     -47.000000      -7.000000     -10.000000
     -46.000000      -7.000000     -10.000000
     -45.000000      -7.000000     -10.000000
     -44.000000      -7.000000     -10.000000
     -43.000000      -7.000000     -10.000000
     -42.000000      -7.000000     -10.000000
     -41.000000      -7.000000     -10.000000
     -40.000000      -7.000000     -10.000000
     -39.000000      -7.000000     -10.000000
     -38.000000      -7.000000     -10.000000
     -37.000000      -7.000000     -10.000000
     -36.000000      -7.000000     -10.000000
     -35.000000      -7.000000     -10.000000
     -34.000000      -7.000000     -10.000000
     -33.000000      -7.000000     -10.000000
     -32.000000      -7.000000     -10.000000
     -31.000000      -7.000000     -10.000000
     -30.000000      -7.000000     -10.000000
     -29.000000      -7.000000     -10.000000
     -28.000000      -7.000000     -10.000000
     -27.000000      -7.000000     -10.000000
     -26.000000      -7.000000     -10.000000
     -25.000000      -7.000000     -10.000000
[...]
POINT_DATA    26901
VECTORS B_total float
  -9.7706060E+00  -1.3632004E+00   3.2232738E+00
  -1.0102172E+01  -1.4006209E+00   3.3096130E+00
  -1.0442957E+01  -1.4396100E+00   3.3966005E+00
  -1.0793209E+01  -1.4803487E+00   3.4839592E+00
  -1.1153214E+01  -1.5230458E+00   3.5713756E+00
  -1.1523309E+01  -1.5679405E+00   3.6584964E+00
  -1.1903876E+01  -1.6153063E+00   3.7449234E+00
  -1.2295366E+01  -1.6654552E+00   3.8302052E+00
  -1.2698295E+01  -1.7187409E+00   3.9138339E+00
  -1.3113251E+01  -1.7755646E+00   3.9952331E+00
  -1.3540907E+01  -1.8363788E+00   4.0737491E+00
  -1.3982021E+01  -1.9016936E+00   4.1486425E+00
  -1.4437441E+01  -1.9720820E+00   4.2190738E+00
  -1.4908107E+01  -2.0481870E+00   4.2840919E+00
  -1.5395050E+01  -2.1307287E+00   4.3426213E+00
  -1.5899386E+01  -2.2205124E+00   4.3934507E+00
  -1.6422314E+01  -2.3184381E+00   4.4352179E+00
  -1.6965097E+01  -2.4255116E+00   4.4664021E+00
  -1.7529055E+01  -2.5428569E+00   4.4853168E+00
  -1.8115536E+01  -2.6717322E+00   4.4901009E+00
  -1.8725895E+01  -2.8135464E+00   4.4787230E+00
  -1.9361479E+01  -2.9698839E+00   4.4489827E+00
  -2.0023582E+01  -3.1425304E+00   4.3985214E+00
  -2.0713413E+01  -3.3335044E+00   4.3248286E+00
  -2.1432062E+01  -3.5450993E+00   4.2252622E+00
  -2.2180450E+01  -3.7799249E+00   4.0970521E+00
  -2.2959269E+01  -4.0409732E+00   3.9373403E+00
  -2.3768892E+01  -4.3316679E+00   3.7431703E+00
  -2.4609282E+01  -4.6559463E+00   3.5115321E+00
  -2.5479824E+01  -5.0183306E+00   3.2394056E+00
  -2.6379139E+01  -5.4240170E+00   2.9238443E+00
  -2.7304859E+01  -5.8789620E+00   2.5621128E+00
  -2.8253336E+01  -6.3899622E+00   2.1518915E+00
  -2.9219378E+01  -6.9647341E+00   1.6915712E+00
  -3.0195942E+01  -7.6119308E+00   1.1806071E+00
  -3.1173868E+01  -8.3411055E+00   6.1994410E-01
  -3.2141640E+01  -9.1625147E+00   1.2447149E-02
  -3.3085129E+01  -1.0086663E+01  -6.3668758E-01
  -3.3987347E+01  -1.1123498E+01  -1.3195546E+00
  -3.4828156E+01  -1.2280994E+01  -2.0251634E+00
  -3.5583973E+01  -1.3563037E+01  -2.7389174E+00
  -3.6227730E+01  -1.4966483E+01  -3.4417689E+00
  -3.6729435E+01  -1.6477430E+01  -4.1087532E+00
  -3.7058228E+01  -1.8067167E+01  -4.7068996E+00
  -3.7186615E+01  -1.9688585E+01  -5.1928158E+00
  -3.7097599E+01  -2.1274378E+01  -5.5108581E+00
  -3.6794205E+01  -2.2738531E+01  -5.5932789E+00
  -3.6309814E+01  -2.3982391E+01  -5.3636837E+00
  -3.5716080E+01  -2.4905428E+01  -4.7442856E+00
  -3.2418343E+01  -2.3490520E+01  -3.3562098E+00
  -8.5289836E-02  -4.8891640E-01   3.2225990E-01
  -5.6201458E-02  -5.0415516E-01   3.1062651E-01
  -2.3774147E-02  -5.1136684E-01   3.0663395E-01
   8.6183548E-03  -5.1019955E-01   3.1038570E-01
   3.7919998E-02  -5.0145435E-01   3.2094169E-01
   6.1941624E-02  -4.8675919E-01   3.3663607E-01
   7.9578876E-02  -4.6814632E-01   3.5548234E-01
   9.0750694E-02  -4.4762421E-01   3.7559873E-01
   9.6108913E-02  -4.2687130E-01   3.9543921E-01
   9.6737385E-02  -4.0713120E-01   4.1391927E-01
   9.3842983E-02  -3.8917542E-01   4.3040299E-01
  -9.8117552E+00  -1.2697809E+00   3.2167077E+00
  -1.0145021E+01  -1.3041677E+00   3.3014271E+00
  -1.0487690E+01  -1.3400114E+00   3.3866522E+00
  -1.0840037E+01  -1.3774796E+00   3.4721019E+00
  -1.1202381E+01  -1.4167659E+00   3.5574594E+00
  -1.1575090E+01  -1.4580927E+00   3.6423669E+00
  -1.1958588E+01  -1.5017139E+00   3.7264223E+00
  -1.2353365E+01  -1.5479193E+00   3.8091705E+00
  -1.2759983E+01  -1.5970380E+00   3.8900976E+00
  -1.3179085E+01  -1.6494435E+00   3.9686203E+00
  -1.3611400E+01  -1.7055582E+00   4.0440784E+00
  -1.4057745E+01  -1.7658582E+00   4.1157212E+00
  -1.4519040E+01  -1.8308806E+00   4.1826973E+00
  -1.4996300E+01  -1.9012284E+00   4.2440391E+00
  -1.5490638E+01  -1.9775798E+00   4.2986517E+00
  -1.6003265E+01  -2.0606956E+00   4.3452973E+00
  -1.6535480E+01  -2.1514294E+00   4.3825817E+00
  -1.7088661E+01  -2.2507401E+00   4.4089456E+00
  -1.7664257E+01  -2.3597045E+00   4.4226508E+00
  -1.8263758E+01  -2.4795361E+00   4.4217763E+00
  -1.8888693E+01  -2.6116033E+00   4.4042139E+00
  -1.9540592E+01  -2.7574568E+00   4.3676677E+00
  -2.0220970E+01  -2.9188585E+00   4.3096581E+00
  -2.0931295E+01  -3.0978215E+00   4.2275248E+00
  -2.1672960E+01  -3.2966547E+00   4.1184340E+00
  -2.2447235E+01  -3.5180178E+00   3.9793749E+00
  -2.3255230E+01  -3.7649956E+00   3.8071842E+00
  -2.4097803E+01  -4.0411658E+00   3.5985184E+00
  -2.4975477E+01  -4.3507032E+00   3.3498793E+00
  -2.5888290E+01  -4.6984820E+00   3.0576372E+00
  -2.6835617E+01  -5.0902038E+00   2.7180810E+00
  -2.7815939E+01  -5.5325346E+00   2.3275182E+00
  -2.8826582E+01  -6.0332665E+00   1.8824356E+00
  -2.9863411E+01  -6.6014595E+00   1.3797152E+00
  -3.0920500E+01  -7.2475848E+00   8.1691086E-01
  -3.1989758E+01  -7.9835806E+00   1.9254917E-01
  -3.3060509E+01  -8.8227825E+00  -4.9355862E-01
  -3.4118904E+01  -9.7795582E+00  -1.2400193E+00
  -3.5147160E+01  -1.0868500E+01  -2.0435255E+00
  -3.6122517E+01  -1.2102905E+01  -2.8983555E+00
  -3.7016045E+01  -1.3492327E+01  -3.7954555E+00
  -3.7791504E+01  -1.5038889E+01  -4.7207050E+00
  -3.8405132E+01  -1.6732445E+01  -5.6520309E+00
  -3.8807404E+01  -1.8544838E+01  -6.5552692E+00
  -3.8948288E+01  -2.0424288E+01  -7.3793221E+00
  -3.8787113E+01  -2.2291695E+01  -8.0521488E+00
  -3.8306789E+01  -2.4041080E+01  -8.4798183E+00
  -3.7530128E+01  -2.5546547E+01  -8.5512238E+00
  -3.6533352E+01  -2.6676712E+01  -8.1496658E+00
  -3.5450603E+01  -2.7314863E+01  -7.1701088E+00
  -3.4464844E+01  -2.7379904E+01  -5.5373421E+00
  -6.9000483E-02  -5.1737404E-01   2.3959351E-01
  -2.7207375E-02  -5.2658463E-01   2.3479557E-01
   1.4248371E-02  -5.2548981E-01   2.4139404E-01
   5.1119328E-02  -5.1517105E-01   2.5776958E-01
   8.0485344E-02  -4.9781132E-01   2.8122044E-01
   1.0110378E-01  -4.7607136E-01   3.0866098E-01
   1.1315060E-01  -4.5247555E-01   3.3727896E-01
   1.1778641E-01  -4.2905569E-01   3.6490595E-01
   1.1664677E-01  -4.0721178E-01   3.9011300E-01
   1.1143494E-01  -3.8774538E-01   4.1215491E-01
  -9.8450804E+00  -1.1712437E+00   3.2086122E+00
  -1.0179782E+01  -1.2023603E+00   3.2918477E+00
  -1.0524055E+01  -1.2348077E+00   3.3754656E+00
  -1.0878198E+01  -1.2687401E+00   3.4591823E+00
  -1.1242558E+01  -1.3043342E+00   3.5426776E+00
  -1.1617535E+01  -1.3417932E+00   3.6255918E+00
  -1.2003590E+01  -1.3813497E+00   3.7075195E+00
  -1.2401250E+01  -1.4232692E+00   3.7880023E+00
  -1.2811122E+01  -1.4678531E+00   3.8665223E+00
  -1.3233894E+01  -1.5154446E+00   3.9424920E+00
  -1.3670351E+01  -1.5664318E+00   4.0152440E+00
  -1.4121368E+01  -1.6212528E+00   4.0840206E+00
  -1.4587931E+01  -1.6804029E+00   4.1479583E+00
  -1.5071123E+01  -1.7444398E+00   4.2060776E+00
  -1.5572141E+01  -1.8139927E+00   4.2572646E+00
  -1.6092281E+01  -1.8897685E+00   4.3002591E+00
  -1.6632946E+01  -1.9725648E+00   4.3336396E+00
  -1.7195623E+01  -2.0632803E+00   4.3558083E+00
  -1.7781889E+01  -2.1629305E+00   4.3649826E+00
  -1.8393383E+01  -2.2726643E+00   4.3591838E+00
  -1.9031797E+01  -2.3937879E+00   4.3362308E+00
  -1.9698862E+01  -2.5277896E+00   4.2937360E+00
  -2.0396320E+01  -2.6763763E+00   4.2291026E+00
  -2.1125912E+01  -2.8415120E+00   4.1395216E+00
  -2.1889353E+01  -3.0254707E+00   4.0219655E+00
  -2.2688297E+01  -3.2309041E+00   3.8731925E+00
  -2.3524309E+01  -3.4609094E+00   3.6897142E+00
  -2.4398798E+01  -3.7191324E+00   3.4677916E+00
  -2.5312931E+01  -4.0098743E+00   3.2034163E+00
  -2.6267521E+01  -4.3382344E+00   2.8923070E+00
  -2.7262854E+01  -4.7102690E+00   2.5299222E+00
  -2.8298496E+01  -5.1331873E+00   2.1115069E+00
  -2.9373045E+01  -5.6155767E+00   1.6321825E+00
  -3.0483826E+01  -6.1676459E+00   1.0870644E+00
  -3.1626543E+01  -6.8014803E+00   4.7140580E-01
  -3.2794838E+01  -7.5312481E+00  -2.1926954E-01
  -3.3979656E+01  -8.3732834E+00  -9.8904991E-01
  -3.5168327E+01  -9.3458824E+00  -1.8415512E+00
  -3.6343185E+01  -1.0468637E+01  -2.7797027E+00
  -3.7479668E+01  -1.1760912E+01  -3.8052378E+00
  -3.8543831E+01  -1.3239190E+01  -4.9173503E+00
  -3.9489792E+01  -1.4912794E+01  -6.1100283E+00
  -4.0258026E+01  -1.6777834E+01  -7.3673468E+00
  -4.0776318E+01  -1.8809549E+01  -8.6565657E+00
  -4.0965572E+01  -2.0954060E+01  -9.9197226E+00
  -4.0752731E+01  -2.3121725E+01  -1.1065860E+01
  -4.0091103E+01  -2.5185459E+01  -1.1967587E+01
  -3.8985466E+01  -2.6987907E+01  -1.2466523E+01
  -3.7514606E+01  -2.8359695E+01  -1.2390534E+01
  -3.5841274E+01  -2.9147594E+01  -1.1581764E+01
  -3.4200665E+01  -2.9245472E+01  -9.9282637E+00
  -3.2865864E+01  -2.8617525E+01  -7.3874640E+00
  -3.2104492E-02  -5.2783012E-01   1.4604568E-01
   2.0284653E-02  -5.2782059E-01   1.5649605E-01
   6.6097260E-02  -5.1694012E-01   1.8073511E-01
   1.0156345E-01  -4.9799252E-01   2.1450043E-01
   1.2530804E-01  -4.7424984E-01   2.5316763E-01
   1.3794041E-01  -4.4877052E-01   2.9265499E-01
   1.4133453E-01  -4.2388868E-01   3.2999754E-01
   1.3784885E-01  -4.0111446E-01   3.6339581E-01
   1.2978315E-01  -3.8121986E-01   3.9205337E-01
  -9.8714647E+00  -1.0681503E+00   3.1990964E+00
  -1.0207363E+01  -1.0957888E+00   3.2809820E+00
  -1.0552981E+01  -1.1246209E+00   3.3631456E+00
  -1.0908643E+01  -1.1547843E+00   3.4453011E+00
  -1.1274719E+01  -1.1864382E+00   3.5271263E+00
  -1.1651641E+01  -1.2197651E+00   3.6082606E+00
  -1.2039897E+01  -1.2549740E+00   3.6882961E+00
  -1.2440055E+01  -1.2923037E+00   3.7667725E+00
  -1.2852757E+01  -1.3320259E+00   3.8431690E+00
  -1.3278739E+01  -1.3744493E+00   3.9168947E+00
  -1.3718831E+01  -1.4199243E+00   3.9872773E+00
  -1.4173964E+01  -1.4688472E+00   4.0535522E+00
  -1.4645182E+01  -1.5216663E+00   4.1148486E+00
  -1.5133639E+01  -1.5788876E+00   4.1701736E+00
  -1.5640604E+01  -1.6410830E+00   4.2183995E+00
  -1.6167459E+01  -1.7088983E+00   4.2582459E+00
  -1.6715700E+01  -1.7830632E+00   4.2882662E+00
  -1.7286924E+01  -1.8644038E+00   4.3068299E+00
  -1.7882830E+01  -1.9538573E+00   4.3121138E+00
  -1.8505199E+01  -2.0524900E+00   4.3020840E+00
  -1.9155893E+01  -2.1615200E+00   4.2744932E+00
  -1.9836832E+01  -2.2823458E+00   4.2268667E+00
  -2.0549995E+01  -2.4165792E+00   4.1564965E+00
  -2.1297403E+01  -2.5660923E+00   4.0604300E+00
  -2.2081097E+01  -2.7330675E+00   3.9354551E+00
  -2.2903137E+01  -2.9200726E+00   3.7780898E+00
  -2.3765572E+01  -3.1301367E+00   3.5845354E+00
  -2.4670397E+01  -3.3668599E+00   3.3506505E+00
  -2.5619492E+01  -3.6345401E+00   3.0719078E+00
  -2.6614532E+01  -3.9383330E+00   2.7433505E+00
  -2.7656858E+01  -4.2844496E+00   2.3595619E+00
  -2.8747314E+01  -4.6803961E+00   1.9146461E+00
  -2.9886030E+01  -5.1352615E+00   1.4022218E+00
  -3.1072174E+01  -5.6600618E+00   8.1541681E-01
  -3.2303600E+01  -6.2681055E+00   1.4682919E-01
  -3.3576355E+01  -6.9753695E+00  -6.1156261E-01
  -3.4883869E+01  -7.8007612E+00  -1.4685862E+00
  -3.6215721E+01  -8.7661800E+00  -2.4340782E+00
  -3.7555611E+01  -9.8960419E+00  -3.5189872E+00
  -3.8878403E+01  -1.1215967E+01  -4.7349377E+00
  -4.0146183E+01  -1.2750113E+01  -6.0926709E+00
  -4.1303696E+01  -1.4516521E+01  -7.5983572E+00
  -4.2274448E+01  -1.6520012E+01  -9.2468414E+00
  -4.2959869E+01  -1.8742554E+01  -1.1011176E+01
  -4.3244892E+01  -2.1131889E+01  -1.2829107E+01
  -4.3013737E+01  -2.3591049E+01  -1.4589346E+01
  -4.2177738E+01  -2.5973120E+01  -1.6123215E+01
  -4.0712605E+01  -2.8087391E+01  -1.7209389E+01
  -3.8694942E+01  -2.9721262E+01  -1.7598022E+01
  -3.6321983E+01  -3.0677650E+01  -1.7054424E+01
  -3.3898693E+01  -3.0818806E+01  -1.5411521E+01
  -3.1787746E+01  -3.0100870E+01  -1.2611296E+01
  -2.7870039E+01  -2.6298307E+01  -8.0027647E+00
   2.5184631E-02  -5.0835609E-01   5.8116913E-02
   8.1227303E-02  -4.9917603E-01   9.2097282E-02
   1.2345314E-01  -4.8103523E-01   1.3862991E-01
   1.5041637E-01  -4.5775223E-01   1.9099808E-01
   1.6338634E-01  -4.3277359E-01   2.4352121E-01
   1.6511250E-01  -4.0864277E-01   2.9226232E-01
   1.5885735E-01  -3.8691568E-01   3.3505285E-01
   1.4760399E-01  -3.6829615E-01   3.7111306E-01
  -9.8918724E+00  -9.6105736E-01   3.1886334E+00
  -1.0228750E+01  -9.8503685E-01   3.2693098E+00
  -1.0575481E+01  -1.0100611E+00   3.3501763E+00
  -1.0932407E+01  -1.0362515E+00   3.4309459E+00
  -1.1299924E+01  -1.0637472E+00   3.5112958E+00
  -1.1678483E+01  -1.0927087E+00   3.5908639E+00
  -1.2068607E+01  -1.1233194E+00   3.6692410E+00
  -1.2470893E+01  -1.1557895E+00   3.7459660E+00
  -1.2886018E+01  -1.1903577E+00   3.8205159E+00
  -1.3314759E+01  -1.2272960E+00   3.8922973E+00
  -1.3757987E+01  -1.2669131E+00   3.9606347E+00
  -1.4216684E+01  -1.3095589E+00   4.0247579E+00
  -1.4691949E+01  -1.3556294E+00   4.0837893E+00
  -1.5184997E+01  -1.4055736E+00   4.1367269E+00
  -1.5697164E+01  -1.4598987E+00   4.1824293E+00
  -1.6229912E+01  -1.5191798E+00   4.2196002E+00
  -1.6784821E+01  -1.5840683E+00   4.2467704E+00
  -1.7363594E+01  -1.6553042E+00   4.2622805E+00
  -1.7968040E+01  -1.7337307E+00   4.2642698E+00
  -1.8600082E+01  -1.8203107E+00   4.2506571E+00
  -1.9261736E+01  -1.9161507E+00   4.2191334E+00
  -1.9955116E+01  -2.0225263E+00   4.1671429E+00
  -2.0682425E+01  -2.1409178E+00   4.0918746E+00
  -2.1445953E+01  -2.2730551E+00   3.9902427E+00
  -2.2248074E+01  -2.4209681E+00   3.8588562E+00
  -2.3091253E+01  -2.5870647E+00   3.6940074E+00
  -2.3978029E+01  -2.7742076E+00   3.4915957E+00
  -2.4910999E+01  -2.9858291E+00   3.2470889E+00
  -2.5892794E+01  -3.2260678E+00   2.9554448E+00
  -2.6925999E+01  -3.4999402E+00   2.6110342E+00
  -2.8013103E+01  -3.8135629E+00   2.2075496E+00
  -2.9156357E+01  -4.1744227E+00   1.7379136E+00
  -3.0357643E+01  -4.5917215E+00   1.1941633E+00
  -3.1618267E+01  -5.0767879E+00   5.6728458E-01
  -3.2938675E+01  -5.6435556E+00  -1.5303740E-01
  -3.4317917E+01  -6.3090858E+00  -9.7881192E-01
  -3.5752781E+01  -7.0940475E+00  -1.9243006E+00
  -3.7236195E+01  -8.0230188E+00  -3.0066693E+00
  -3.8754642E+01  -9.1243677E+00  -4.2465506E+00
  -4.0284081E+01  -1.0429253E+01  -5.6679559E+00
  -4.1784271E+01  -1.1969200E+01  -7.2966862E+00
  -4.3191803E+01  -1.3771423E+01  -9.1558247E+00
  -4.4413177E+01  -1.5851074E+01  -1.1256778E+01
  -4.5320915E+01  -1.8199863E+01  -1.3584526E+01
  -4.5757637E+01  -2.0771646E+01  -1.6077333E+01
  -4.5553940E+01  -2.3467361E+01  -1.8604183E+01
  -4.4564728E+01  -2.6125174E+01  -2.0948019E+01
  -4.2722206E+01  -2.8523836E+01  -2.2807014E+01
  -4.0092640E+01  -3.0407158E+01  -2.3826252E+01
  -3.6912098E+01  -3.1531059E+01  -2.3662949E+01
  -3.3574375E+01  -3.1722364E+01  -2.2070152E+01
  -3.0560640E+01  -3.0926907E+01  -1.8966032E+01
  -2.8330593E+01  -2.9224775E+01  -1.4454882E+01
  -6.4261255E+00  -6.6965961E+00  -2.1160202E+00
   9.3308449E-02  -4.5347214E-01  -1.5392303E-03
   1.4285088E-01  -4.4031239E-01   5.9194565E-02
   1.7324543E-01  -4.2160511E-01   1.2675285E-01
   1.8651199E-01  -4.0094280E-01   1.9352913E-01
   1.8651772E-01  -3.8092995E-01   2.5453472E-01
   1.7746258E-01  -3.6307955E-01   3.0721474E-01
   1.6307163E-01  -3.4803343E-01   3.5090983E-01
  -9.9072533E+00  -8.5053825E-01   3.1779418E+00
  -1.0244923E+01  -8.7070245E-01   3.2575607E+00
  -1.0592555E+01  -8.9175290E-01   3.3372979E+00
  -1.0950514E+01  -9.1379267E-01   3.4168663E+00
  -1.1319212E+01  -9.3694049E-01   3.4959426E+00
  -1.1699125E+01  -9.6133280E-01   3.5741630E+00
  -1.2090800E+01  -9.8712593E-01   3.6511188E+00
  -1.2494859E+01  -1.0144986E+00   3.7263479E+00
  -1.2912014E+01  -1.0436549E+00   3.7993267E+00
  -1.3343073E+01  -1.0748266E+00   3.8694592E+00
  -1.3788946E+01  -1.1082776E+00   3.9360676E+00
  -1.4250660E+01  -1.1443070E+00   3.9983778E+00
  -1.4729359E+01  -1.1832542E+00   4.0555067E+00
  -1.5226314E+01  -1.2255042E+00   4.1064439E+00
  -1.5742920E+01  -1.2714933E+00   4.1500382E+00
  -1.6280710E+01  -1.3217168E+00   4.1849785E+00
  -1.6841345E+01  -1.3767374E+00   4.2097764E+00
  -1.7426615E+01  -1.4371966E+00   4.2227483E+00
  -1.8038439E+01  -1.5038270E+00   4.2220001E+00
  -1.8678858E+01  -1.5774691E+00   4.2054100E+00
  -1.9350042E+01  -1.6590921E+00   4.1706109E+00
  -2.0054276E+01  -1.7498188E+00   4.1149783E+00
  -2.0793974E+01  -1.8509589E+00   4.0356064E+00
  -2.1571684E+01  -1.9640505E+00   3.9292867E+00
  -2.2390093E+01  -2.0909097E+00   3.7924676E+00
  -2.3252054E+01  -2.2337041E+00   3.6212296E+00
  -2.4160578E+01  -2.3950279E+00   3.4111927E+00
  -2.5118855E+01  -2.5780149E+00   3.1574571E+00
  -2.6130253E+01  -2.7864749E+00   2.8544934E+00
  -2.7198288E+01  -3.0250683E+00   2.4960241E+00
  -2.8326603E+01  -3.2995317E+00   2.0748758E+00
  -2.9518923E+01  -3.6169686E+00   1.5828067E+00
  -3.0778976E+01  -3.9862111E+00   1.0102615E+00
  -3.2110397E+01  -4.4182835E+00   3.4604156E-01
  -3.3516499E+01  -4.9269505E+00  -4.2320016E-01
  -3.4999798E+01  -5.5293493E+00  -1.3136984E+00
  -3.6561100E+01  -6.2466440E+00  -2.3455834E+00
  -3.8197685E+01  -7.1045818E+00  -3.5441244E+00
  -3.9900166E+01  -8.1337147E+00  -4.9409199E+00
  -4.1647362E+01  -9.3688354E+00  -6.5744410E+00
  -4.3398842E+01  -1.0847042E+01  -8.4887190E+00
  -4.5085129E+01  -1.2603395E+01  -1.0728376E+01
  -4.6597038E+01  -1.4663111E+01  -1.3327551E+01
  -4.7777508E+01  -1.7029251E+01  -1.6290455E+01
  -4.8422493E+01  -1.9665831E+01  -1.9562729E+01
  -4.8299500E+01  -2.2478647E+01  -2.2997009E+01
  -4.7192516E+01  -2.5300110E+01  -2.6323275E+01
  -4.4974026E+01  -2.7888338E+01  -2.9142622E+01
  -4.1688751E+01  -2.9952253E+01  -3.0965948E+01
  -3.7613163E+01  -3.1206585E+01  -3.1306841E+01
  -3.3247772E+01  -3.1445168E+01  -2.9808849E+01
  -2.9221645E+01  -3.0603561E+01  -2.6355970E+01
  -2.6136473E+01  -2.8779713E+01  -2.1108534E+01
  -2.4417488E+01  -2.6200609E+01  -1.4442469E+01
   9.7354889E-02  -3.7302017E-01  -8.7781906E-02
   1.5467072E-01  -3.7074661E-01  -1.3890266E-02
   1.8900681E-01  -3.6233234E-01   6.8103790E-02
   2.0314503E-01  -3.5111141E-01   1.4844179E-01
   2.0201206E-01  -3.3952951E-01   2.2098017E-01
   1.9081497E-01  -3.2903194E-01   2.8286719E-01
   1.7398357E-01  -3.2027531E-01   3.3351779E-01
  -9.9184923E+00  -7.3718309E-01   3.1678507E+00
  -1.0256779E+01  -7.5340044E-01   3.2465782E+00
  -1.0605121E+01  -7.7033675E-01   3.3253679E+00
  -1.0963898E+01  -7.8807586E-01   3.4039309E+00
  -1.1333538E+01  -8.0671459E-01   3.4819446E+00
  -1.1714537E+01  -8.2636398E-01   3.5590453E+00
  -1.2107459E+01  -8.4715158E-01   3.6348236E+00
  -1.2512953E+01  -8.6922306E-01   3.7088172E+00
  -1.2931753E+01  -8.9274484E-01   3.7805014E+00
  -1.3364697E+01  -9.1790640E-01   3.8492794E+00
  -1.3812731E+01  -9.4492316E-01   3.9144711E+00
  -1.4276914E+01  -9.7404015E-01   3.9753003E+00
  -1.4758430E+01  -1.0055352E+00   4.0308781E+00
  -1.5258598E+01  -1.0397243E+00   4.0801892E+00
  -1.5778867E+01  -1.0769659E+00   4.1220732E+00
  -1.6320826E+01  -1.1176678E+00   4.1552067E+00
  -1.6886204E+01  -1.1622943E+00   4.1780853E+00
  -1.7476871E+01  -1.2113758E+00   4.1890059E+00
  -1.8094837E+01  -1.2655201E+00   4.1860456E+00
  -1.8742254E+01  -1.3254266E+00   4.1670465E+00
  -1.9421417E+01  -1.3919041E+00   4.1295958E+00
  -2.0134768E+01  -1.4658933E+00   4.0710049E+00
  -2.0884909E+01  -1.5484962E+00   3.9882889E+00
  -2.1674616E+01  -1.6410123E+00   3.8781309E+00
  -2.2506861E+01  -1.7449833E+00   3.7368388E+00
  -2.3384840E+01  -1.8622582E+00   3.5603056E+00
  -2.4312008E+01  -1.9950632E+00   3.3439050E+00
  -2.5292097E+01  -2.1461029E+00   3.0824063E+00
  -2.6329159E+01  -2.3186865E+00   2.7698400E+00
  -2.7427586E+01  -2.5168922E+00   2.3993390E+00
  -2.8592133E+01  -2.7457807E+00   1.9629335E+00
  -2.9827944E+01  -3.0116723E+00   1.4512895E+00
  -3.1140566E+01  -3.3225060E+00   8.5335195E-01