# vtk DataFile Version 3.0
T01 + IGRF magnetic field in GSW coordinates
ASCII
DATASET STRUCTURED_GRID
DIMENSIONS     61    21    21
POINTS    26901 float
     -50.000000     -10.000000     -10.000000
     -49.000000     -10.000000     -10.000000
     -48.000000     -10.000000     -10.000000
     -47.000000     -10.000000     -10.000000
     -46.000000     -10.000000     -10.000000
     -45.000000     -10.000000     -10.000000
     -44.000000     -10.000000     -10.000000
     -43.000000     -10.000000     -10.000000
     -42.000000     -10.000000     -10.000000
     -41.000000     -10.000000     -10.000000
     -40.000000     -10.000000     -10.000000
     -39.000000     -10.000000     -10.000000
     -38.000000     -10.000000     -10.000000
     -37.000000     -10.000000     -10.000000
     -36.000000     -10.000000     -10.000000
     -35.000000     -10.000000     -10.000000
     -34.000000     -10.000000     -10.000000
     -33.000000     -10.000000     -10.000000
     -32.000000     -10.000000     -10.000000
     -31.000000     -10.000000     -10.000000
     -30.000000     -10.000000     -10.000000
     -29.000000     -10.000000     -10.000000
     -28.000000     -10.000000     -10.000000
     -27.000000     -10.000000     -10.000000
     -26.000000     -10.000000     -10.000000
     -25.000000     -10.000000     -10.000000
     -24.000000     -10.000000     -10.000000
     -23.000000     -10.000000     -10.000000
     -22.000000     -10.000000     -10.000000
     -21.000000     -10.000000     -10.000000
     -20.000000     -10.000000     -10.000000
     -19.000000     -10.000000     -10.000000
     -18.000000     -10.000000     -10.000000
     -17.000000     -10.000000     -10.000000
     -16.000000     -10.000000     -10.000000
     -15.000000     -10.000000     -10.000000
     -14.000000     -10.000000     -10.000000
     -13.000000     -10.000000     -10.000000
     -12.000000     -10.000000     -10.000000
     -11.000000     -10.000000     -10.000000
     -10.000000     -10.000000     -10.000000
      -9.000000     -10.000000     -10.000000
      -8.000000     -10.000000     -10.000000
      -7.000000     -10.000000     -10.000000
      -6.000000     -10.000000     -10.000000
      -5.000000     -10.000000     -10.000000
      -4.000000     -10.000000     -10.000000
      -3.000000     -10.000000     -10.000000
      -2.000000     -10.000000     -10.000000
      -1.000000     -10.000000     -10.000000
       0.000000     -10.000000     -10.000000
       1.000000     -10.000000     -10.000000
       2.000000     -10.000000     -10.000000
       3.000000     -10.000000     -10.000000
       4.000000     -10.000000     -10.000000
       5.000000     -10.000000     -10.000000
       6.000000     -10.000000     -10.000000
       7.000000     -10.000000     -10.000000
       8.000000     -10.000000     -10.000000
       9.000000     -10.000000     -10.000000
      10.000000     -10.000000     -10.000000
     -50.000000      -9.000000     -10.000000
     -49.000000      -9.000000     -10.000000
     -48.000000      -9.000000     -10.000000
     -47.000000      -9.000000     -10.000000
     -46.000000      -9.000000     -10.000000
     -45.000000      -9.000000     -10.000000
     -44.000000      -9.000000     -10.000000
     -43.000000      -9.000000     -10.000000
     -42.000000      -9.000000     -10.000000
     -41.000000      -9.000000     -10.000000
     -40.000000      -9.000000     -10.000000
     -39.000000      -9.000000     -10.000000
     -38.000000      -9.000000     -10.000000
     -37.000000      -9.000000     -10.000000
     -36.000000      -9.000000     -10.000000
     -35.000000      -9.000000     -10.000000
     -34.000000      -9.000000     -10.000000
     -33.000000      -9.000000     -10.000000
     -32.000000      -9.000000     -10.000000
     -31.000000      -9.000000     -10.000000
     -30.000000      -9.000000     -10.000000
     -29.000000      -9.000000     -10.000000
     -28.000000      -9.000000     -10.000000
     -27.000000      -9.000000     -10.000000
     -26.000000      -9.000000     -10.000000
     -25.000000      -9.000000     -10.000000
     -24.000000      -9.000000     -10.000000
     -23.000000      -9.000000     -10.000000
     -22.000000      -9.000000     -10.000000
     -21.000000      -9.000000     -10.000000
     -20.000000      -9.000000     -10.000000
     -19.000000      -9.000000     -10.000000
     -18.000000      -9.000000     -10.000000
     -17.000000      -9.000000     -10.000000
     -16.000000      -9.000000     -10.000000
     -15.000000      -9.000000     -10.000000
     -14.000000      -9.000000     -10.000000
     -13.000000      -9.000000     -10.000000
     -12.000000      -9.000000     -10.000000
     -11.000000      -9.000000     -10.000000
     -10.000000      -9.000000     -10.000000
      -9.000000      -9.000000     -10.000000
      -8.000000      -9.000000     -10.000000
      -7.000000      -9.000000     -10.000000
      -6.000000      -9.000000     -10.000000
      -5.000000      -9.000000     -10.000000
      -4.000000      -9.000000     -10.000000
      -3.000000      -9.000000     -10.000000
      -2.000000      -9.000000     -10.000000
      -1.000000      -9.000000     -10.000000
       0.000000      -9.000000     -10.000000
       1.000000      -9.000000     -10.000000
       2.000000      -9.000000     -10.000000
       3.000000      -9.000000     -10.000000
       4.000000      -9.000000     -10.000000
       5.000000      -9.000000     -10.000000
       6.000000      -9.000000     -10.000000
       7.000000      -9.000000     -10.000000
       8.000000      -9.000000     -10.000000
       9.000000      -9.000000     -10.000000
      10.000000      -9.000000     -10.000000
     -50.000000      -8.000000     -10.000000
     -49.000000      -8.000000     -10.000000
     -48.000000      -8.000000     -10.000000
     -47.000000      -8.000000     -10.000000
     -46.000000      -8.000000     -10.000000
     -45.000000      -8.000000     -10.000000
     -44.000000      -8.000000     -10.000000
     -43.000000      -8.000000     -10.000000
     -42.000000      -8.000000     -10.000000
     -41.000000      -8.000000     -10.000000
     -40.000000      -8.000000     -10.000000
     -39.000000      -8.000000     -10.000000
     -38.000000      -8.000000     -10.000000
     -37.000000      -8.000000     -10.000000
     -36.000000      -8.000000     -10.000000
     -35.000000      -8.000000     -10.000000
     -34.000000      -8.000000     -10.000000
     -33.000000      -8.000000     -10.000000
     -32.000000      -8.000000     -10.000000
     -31.000000      -8.000000     -10.000000
     -30.000000      -8.000000     -10.000000
     -29.000000      -8.000000     -10.000000
     -28.000000      -8.000000     -10.000000
     -27.000000      -8.000000     -10.000000
     -26.000000      -8.000000     -10.000000
     -25.000000      -8.000000     -10.000000
     -24.000000      -8.000000     -10.000000
     -23.000000      -8.000000     -10.000000
     -22.000000      -8.000000     -10.000000
     -21.000000      -8.000000     -10.000000
     -20.000000      -8.000000     -10.000000
     -19.000000      -8.000000     -10.000000
     -18.000000      -8.000000     -10.000000
     -17.000000      -8.000000     -10.000000
     -16.000000      -8.000000     -10.000000
     -15.000000      -8.000000     -10.000000
     -14.000000      -8.000000     -10.000000
     -13.000000      -8.000000     -10.000000
     -12.000000      -8.000000     -10.000000
     -11.000000      -8.000000     -10.000000
     -10.000000      -8.000000     -10.000000
      -9.000000      -8.000000     -10.000000
      -8.000000      -8.000000     -10.000000
      -7.000000      -8.000000     -10.000000
      -6.000000      -8.000000     -10.000000
      -5.000000      -8.000000     -10.000000
      -4.000000      -8.000000     -10.000000
      -3.000000      -8.000000     -10.000000
      -2.000000      -8.000000     -10.000000
      -1.000000      -8.000000     -10.000000
       0.000000      -8.000000     -10.000000
       1.000000      -8.000000     -10.000000
       2.000000      -8.000000     -10.000000
       3.000000      -8.000000     -10.000000
       4.000000      -8.000000     -10.000000
       5.000000      -8.000000     -10.000000
       6.000000      -8.000000     -10.000000
       7.000000      -8.000000     -10.000000
       8.000000      -8.000000     -10.000000
       9.000000      -8.000000     -10.000000
      10.000000      -8.000000     -10.000000
     -50.000000      -7.000000     -10.000000
     -49.000000      -7.000000     -10.000000
     -48.000000      -7.000000     -10.000000
     -47.000000      -7.000000     -10.000000
     -46.000000      -7.000000     -10.000000
     -45.000000      -7.000000     -10.000000
     -44.000000      -7.000000     -10.000000
     -43.000000      -7.000000     -10.000000
     -42.000000      -7.000000     -10.000000
     -41.000000      -7.000000     -10.000000
     -40.000000      -7.000000     -10.000000
     -39.000000      -7.000000     -10.000000
     -38.000000      -7.000000     -10.000000
     -37.000000      -7.000000     -10.000000
     -36.000000      -7.000000     -10.000000
     -35.000000      -7.000000     -10.000000
     -34.000000      -7.000000     -10.000000
     -33.000000      -7.000000     -10.000000
     -32.000000      -7.000000     -10.000000
     -31.000000      -7.000000     -10.000000
     -30.000000      -7.000000     -10.000000
     -29.000000      -7.000000     -10.000000
     -28.000000      -7.000000     -10.000000
     -27.000000      -7.000000     -10.000000
     -26.000000      -7.000000     -10.000000
     -25.000000      -7.000000     -10.000000
[...]
POINT_DATA    26901
VECTORS B_total float
  -9.0949965E+00  -1.0988722E+00   3.2776084E+00
  -9.4112244E+00  -1.1295246E+00   3.3617325E+00
  -9.7369938E+00  -1.1618745E+00   3.4464433E+00
  -1.0072610E+01  -1.1961278E+00   3.5315180E+00
  -1.0418427E+01  -1.2325189E+00   3.6167078E+00
  -1.0774847E+01  -1.2713141E+00   3.7017350E+00
  -1.1142324E+01  -1.3128160E+00   3.7862887E+00
  -1.1521381E+01  -1.3573670E+00   3.8700185E+00
  -1.1912612E+01  -1.4053544E+00   3.9525287E+00
  -1.2316688E+01  -1.4572153E+00   4.0333700E+00
  -1.2734369E+01  -1.5134429E+00   4.1120310E+00
  -1.3166506E+01  -1.5745915E+00   4.1879263E+00
  -1.3614047E+01  -1.6412852E+00   4.2603846E+00
  -1.4078039E+01  -1.7142237E+00   4.3286366E+00
  -1.4559631E+01  -1.7941917E+00   4.3917985E+00
  -1.5060067E+01  -1.8820674E+00   4.4488583E+00
  -1.5580679E+01  -1.9788328E+00   4.4986610E+00
  -1.6122879E+01  -2.0855851E+00   4.5398932E+00
  -1.6688141E+01  -2.2035484E+00   4.5710721E+00
  -1.7277983E+01  -2.3340888E+00   4.5905361E+00
  -1.7893948E+01  -2.4787309E+00   4.5964398E+00
  -1.8537565E+01  -2.6391768E+00   4.5867500E+00
  -1.9210337E+01  -2.8173299E+00   4.5592508E+00
  -1.9913700E+01  -3.0153234E+00   4.5115476E+00
  -2.0648993E+01  -3.2355540E+00   4.4410758E+00
  -2.1417425E+01  -3.4807248E+00   4.3451037E+00
  -2.2220015E+01  -3.7538929E+00   4.2207489E+00
  -2.3057545E+01  -4.0585260E+00   4.0649610E+00
  -2.3930470E+01  -4.3985701E+00   3.8745437E+00
  -2.4838772E+01  -4.7785172E+00   3.6461601E+00
  -2.5781820E+01  -5.2034836E+00   3.3763824E+00
  -2.6758131E+01  -5.6792855E+00   3.0617745E+00
  -2.7765142E+01  -6.2125163E+00   2.6990571E+00
  -2.8798939E+01  -6.8106112E+00   2.2853336E+00
  -2.9854000E+01  -7.4818997E+00   1.8183970E+00
  -3.0922987E+01  -8.2356071E+00   1.2970799E+00
  -3.1996544E+01  -9.0817690E+00   7.2160041E-01
  -3.3063080E+01  -1.0030976E+01   9.3851089E-02
  -3.4108521E+01  -1.1093829E+01  -5.8238959E-01
  -3.5115875E+01  -1.2279940E+01  -1.3012996E+00
  -3.6064632E+01  -1.3596264E+01  -2.0547621E+00
  -3.6930130E+01  -1.5044626E+01  -2.8317645E+00
  -3.7683285E+01  -1.6618372E+01  -3.6171293E+00
  -3.8291481E+01  -1.8298410E+01  -4.3894215E+00
  -3.8721558E+01  -2.0049263E+01  -5.1182041E+00
  -3.8945812E+01  -2.1816391E+01  -5.7614565E+00
  -3.8950958E+01  -2.3526215E+01  -6.2644787E+00
  -3.8748802E+01  -2.5090424E+01  -6.5617809E+00
  -3.8385803E+01  -2.6415176E+01  -6.5828733E+00
  -3.7947929E+01  -2.7414421E+01  -6.2616034E+00
  -3.2183323E+01  -2.4040598E+01  -4.6822872E+00
  -7.6754391E-02  -2.6219082E-01   4.7930717E-01
  -7.6526880E-02  -2.8862667E-01   4.7386694E-01
  -7.0500374E-02  -3.1339264E-01   4.6924925E-01
  -5.9972286E-02  -3.3440781E-01   4.6628046E-01
  -4.6746731E-02  -3.5042858E-01   4.6534920E-01
  -3.2666683E-02  -3.6110783E-01   4.6642709E-01
  -1.9248486E-02  -3.6682796E-01   4.6914458E-01
  -7.5159073E-03  -3.6841583E-01   4.7298169E-01
   2.0189285E-03  -3.6689329E-01   4.7739232E-01
   9.2439651E-03  -3.6324501E-01   4.8191619E-01
  -9.1449556E+00  -1.0271069E+00   3.2849500E+00
  -9.4636621E+00  -1.0554961E+00   3.3680651E+00
  -9.7921391E+00  -1.0854863E+00   3.4516485E+00
  -1.0130725E+01  -1.1172695E+00   3.5354722E+00
  -1.0479802E+01  -1.1510639E+00   3.6192825E+00
  -1.0839810E+01  -1.1871179E+00   3.7027979E+00
  -1.1211247E+01  -1.2257131E+00   3.7857010E+00
  -1.1594680E+01  -1.2671692E+00   3.8676362E+00
  -1.1990755E+01  -1.3118474E+00   3.9482005E+00
  -1.2400202E+01  -1.3601562E+00   4.0269356E+00
  -1.2823845E+01  -1.4125568E+00   4.1033196E+00
  -1.3262610E+01  -1.4695688E+00   4.1767521E+00
  -1.3717527E+01  -1.5317782E+00   4.2465448E+00
  -1.4189735E+01  -1.5998439E+00   4.3119049E+00
  -1.4680485E+01  -1.6745062E+00   4.3719201E+00
  -1.5191131E+01  -1.7565969E+00   4.4255404E+00
  -1.5723136E+01  -1.8470491E+00   4.4715648E+00
  -1.6278051E+01  -1.9469097E+00   4.5086236E+00
  -1.6857508E+01  -2.0573521E+00   4.5351644E+00
  -1.7463205E+01  -2.1796920E+00   4.5494390E+00
  -1.8096874E+01  -2.3154075E+00   4.5495005E+00
  -1.8760275E+01  -2.4661589E+00   4.5331917E+00
  -1.9455154E+01  -2.6338165E+00   4.4981484E+00
  -2.0183237E+01  -2.8204939E+00   4.4417992E+00
  -2.0946190E+01  -3.0285881E+00   4.3613644E+00
  -2.1745602E+01  -3.2608268E+00   4.2538505E+00
  -2.2582928E+01  -3.5203342E+00   4.1160603E+00
  -2.3459452E+01  -3.8106949E+00   3.9445536E+00
  -2.4376209E+01  -4.1360412E+00   3.7356513E+00
  -2.5333849E+01  -4.5011487E+00   3.4854231E+00
  -2.6332483E+01  -4.9115462E+00   3.1897058E+00
  -2.7371468E+01  -5.3736367E+00   2.8441639E+00
  -2.8449150E+01  -5.8948336E+00   2.4444103E+00
  -2.9562601E+01  -6.4837017E+00   1.9861994E+00
  -3.0707335E+01  -7.1501055E+00   1.4656700E+00
  -3.1877016E+01  -7.9053221E+00   8.7962365E-01
  -3.3063141E+01  -8.7620850E+00   2.2576833E-01
  -3.4254627E+01  -9.7344465E+00  -4.9709451E-01
  -3.5437107E+01  -1.0837303E+01  -1.2889552E+00
  -3.6591953E+01  -1.2085365E+01  -2.1484323E+00
  -3.7694794E+01  -1.3491279E+01  -3.0723240E+00
  -3.8713852E+01  -1.5062569E+01  -4.0544395E+00
  -3.9608669E+01  -1.6797329E+01  -5.0832372E+00
  -4.0330353E+01  -1.8678661E+01  -6.1379867E+00
  -4.0824966E+01  -2.0668770E+01  -7.1837692E+00
  -4.1041592E+01  -2.2704136E+01  -8.1665468E+00
  -4.0945312E+01  -2.4693996E+01  -9.0104456E+00
  -4.0533669E+01  -2.6524673E+01  -9.6197824E+00
  -3.9852337E+01  -2.8071415E+01  -9.8878584E+00
  -3.9004009E+01  -2.9216835E+01  -9.7118835E+00
  -3.8145081E+01  -2.9872408E+01  -9.0111980E+00
  -3.5223564E+01  -2.8209057E+01  -7.2486238E+00
  -1.0700250E-01  -2.8326416E-01   4.7192907E-01
  -9.7409725E-02  -3.1662178E-01   4.6143293E-01
  -8.1299782E-02  -3.4428501E-01   4.5411825E-01
  -6.1659813E-02  -3.6464119E-01   4.5067167E-01
  -4.1350842E-02  -3.7745476E-01   4.5092583E-01
  -2.2603035E-02  -3.8350964E-01   4.5415163E-01
  -6.7601204E-03  -3.8419724E-01   4.5935559E-01
   5.6266785E-03  -3.8104343E-01   4.6557868E-01
   1.4604092E-02  -3.7545490E-01   4.7202969E-01
  -9.1931696E+00  -9.5231783E-01   3.2931223E+00
  -9.5142374E+00  -9.7816902E-01   3.3753486E+00
  -9.8452892E+00  -1.0055006E+00   3.4579334E+00
  -1.0186689E+01  -1.0344881E+00   3.5406446E+00
  -1.0538853E+01  -1.0653321E+00   3.6232243E+00
  -1.0902249E+01  -1.0982598E+00   3.7053850E+00
  -1.1277416E+01  -1.1335297E+00   3.7868047E+00
  -1.1664966E+01  -1.1714343E+00   3.8671217E+00
  -1.2065588E+01  -1.2123057E+00   3.9459252E+00
  -1.2480071E+01  -1.2565192E+00   4.0227480E+00
  -1.2909299E+01  -1.3044988E+00   4.0970564E+00
  -1.3354267E+01  -1.3567238E+00   4.1682363E+00
  -1.3816081E+01  -1.4137352E+00   4.2355809E+00
  -1.4295968E+01  -1.4761425E+00   4.2982736E+00
  -1.4795274E+01  -1.5446330E+00   4.3553729E+00
  -1.5315465E+01  -1.6199805E+00   4.4057927E+00
  -1.5858125E+01  -1.7030563E+00   4.4482851E+00
  -1.6424942E+01  -1.7948412E+00   4.4814239E+00
  -1.7017704E+01  -1.8964397E+00   4.5035863E+00
  -1.7638281E+01  -2.0090964E+00   4.5129418E+00
  -1.8288601E+01  -2.1342154E+00   4.5074387E+00
  -1.8970646E+01  -2.2733846E+00   4.4847970E+00
  -1.9686424E+01  -2.4284053E+00   4.4425039E+00
  -2.0437954E+01  -2.6013272E+00   4.3778081E+00
  -2.1227253E+01  -2.7944930E+00   4.2877102E+00
  -2.2056299E+01  -3.0105987E+00   4.1689596E+00
  -2.2927034E+01  -3.2527549E+00   4.0180230E+00
  -2.3841301E+01  -3.5245748E+00   3.8310587E+00
  -2.4800787E+01  -3.8302722E+00   3.6038804E+00
  -2.5806906E+01  -4.1747813E+00   3.3319237E+00
  -2.6860662E+01  -4.5639000E+00   3.0102339E+00
  -2.7962444E+01  -5.0044541E+00   2.6334829E+00
  -2.9111792E+01  -5.5044966E+00   2.1960425E+00
  -3.0307117E+01  -6.0735312E+00   1.6921039E+00
  -3.1545450E+01  -6.7227702E+00   1.1158386E+00
  -3.2822079E+01  -7.4653845E+00   4.6153545E-01
  -3.4130146E+01  -8.3167191E+00  -2.7631104E-01
  -3.5459969E+01  -9.2943296E+00  -1.1030228E+00
  -3.6797909E+01  -1.0417679E+01  -2.0238092E+00
  -3.8124638E+01  -1.1707203E+01  -3.0437109E+00
  -3.9412560E+01  -1.3182323E+01  -4.1670046E+00
  -4.0622692E+01  -1.4857982E+01  -5.3954086E+00
  -4.1701744E+01  -1.6739290E+01  -6.7243485E+00
  -4.2581139E+01  -1.8814287E+01  -8.1367588E+00
  -4.3180283E+01  -2.1045504E+01  -9.5947819E+00
  -4.3416653E+01  -2.3362101E+01  -1.1031010E+01
  -4.3223969E+01  -2.5655807E+01  -1.2342703E+01
  -4.2576721E+01  -2.7784412E+01  -1.3393221E+01
  -4.1515251E+01  -2.9586081E+01  -1.4024429E+01
  -4.0161747E+01  -3.0904419E+01  -1.4080382E+01
  -3.8717594E+01  -3.1619343E+01  -1.3437389E+01
  -3.7437843E+01  -3.1673954E+01  -1.2030669E+01
  -2.6271149E+01  -2.2364359E+01  -6.9400501E+00
  -1.3286352E-01  -3.2188034E-01   4.5123291E-01
  -1.0856342E-01  -3.5739326E-01   4.3709564E-01
  -7.9810143E-02  -3.8248348E-01   4.2985106E-01
  -5.0997734E-02  -3.9717960E-01   4.2904091E-01
  -2.5260925E-02  -4.0299797E-01   4.3320799E-01
  -4.3067932E-03  -4.0206432E-01   4.4059825E-01
   1.1402130E-02  -3.9659357E-01   4.4956231E-01
   2.2220612E-02  -3.8848305E-01   4.5883834E-01
  -9.2386351E+00  -8.7491691E-01   3.3020053E+00
  -9.5619030E+00  -8.9798784E-01   3.3834698E+00
  -9.8953495E+00  -9.2239696E-01   3.4651942E+00
  -1.0239361E+01  -9.4830209E-01   3.5469420E+00
  -1.0594380E+01  -9.7588301E-01   3.6284509E+00
  -1.0960909E+01  -1.0053440E+00   3.7094288E+00
  -1.1339518E+01  -1.0369171E+00   3.7895486E+00
  -1.1730857E+01  -1.0708655E+00   3.8684418E+00
  -1.2135665E+01  -1.1074879E+00   3.9456909E+00
  -1.2554774E+01  -1.1471220E+00   4.0208197E+00
  -1.2989130E+01  -1.1901507E+00   4.0932832E+00
  -1.3439787E+01  -1.2370067E+00   4.1624537E+00
  -1.3907925E+01  -1.2881792E+00   4.2276058E+00
  -1.4394850E+01  -1.3442210E+00   4.2879009E+00
  -1.4901998E+01  -1.4057567E+00   4.3423686E+00
  -1.5430941E+01  -1.4734913E+00   4.3898873E+00
  -1.5983373E+01  -1.5482213E+00   4.4291658E+00
  -1.6561115E+01  -1.6308460E+00   4.4587221E+00
  -1.7166103E+01  -1.7223821E+00   4.4768667E+00
  -1.7800371E+01  -1.8239799E+00   4.4816875E+00
  -1.8466042E+01  -1.9369440E+00   4.4710326E+00
  -1.9165316E+01  -2.0627577E+00   4.4425049E+00
  -1.9900455E+01  -2.2031128E+00   4.3934460E+00
  -2.0673779E+01  -2.3599482E+00   4.3209286E+00
  -2.1487650E+01  -2.5354958E+00   4.2217398E+00
  -2.2344467E+01  -2.7323463E+00   4.0923667E+00
  -2.3246668E+01  -2.9535141E+00   3.9289484E+00
  -2.4196682E+01  -3.2025340E+00   3.7272344E+00
  -2.5196907E+01  -3.4835737E+00   3.4825218E+00
  -2.6249603E+01  -3.8015718E+00   3.1895974E+00
  -2.7356781E+01  -4.1624050E+00   2.8426747E+00
  -2.8520025E+01  -4.5730968E+00   2.4353728E+00
  -2.9740305E+01  -5.0420713E+00   1.9607170E+00
  -3.1017727E+01  -5.5794587E+00   1.4111655E+00
  -3.2351295E+01  -6.1974640E+00   7.7863634E-01
  -3.3738575E+01  -6.9107714E+00   5.4462671E-02
  -3.5175171E+01  -7.7369394E+00  -7.7077901E-01
  -3.6653866E+01  -8.6966915E+00  -1.7075908E+00
  -3.8163006E+01  -9.8138561E+00  -2.7679672E+00
  -3.9683914E+01  -1.1114674E+01  -3.9656074E+00
  -4.1186966E+01  -1.2625896E+01  -5.3153129E+00
  -4.2626553E+01  -1.4371094E+01  -6.8306160E+00
  -4.3935890E+01  -1.6364525E+01  -8.5184727E+00
  -4.5023792E+01  -1.8602158E+01  -1.0370060E+01
  -4.5776939E+01  -2.1050362E+01  -1.2347799E+01
  -4.6071732E+01  -2.3634340E+01  -1.4370869E+01
  -4.5798306E+01  -2.6230040E+01  -1.6303839E+01
  -4.4896172E+01  -2.8665695E+01  -1.7955912E+01
  -4.3393059E+01  -3.0738064E+01  -1.9097443E+01
  -4.1432632E+01  -3.2245094E+01  -1.9496115E+01
  -3.9274414E+01  -3.3028610E+01  -1.8965582E+01
  -3.7257565E+01  -3.3013187E+01  -1.7410194E+01
  -3.5736229E+01  -3.2225227E+01  -1.4846976E+01
  -5.2253938E+00  -4.7429399E+00  -1.2768831E+00
  -1.4229679E-01  -3.7428284E-01   4.1331863E-01
  -1.0100555E-01  -4.0397072E-01   4.0078163E-01
  -6.0943604E-02  -4.1991329E-01   3.9881134E-01
  -2.6420593E-02  -4.2456436E-01   4.0476370E-01
   6.1988831E-04  -4.2113400E-01   4.1555834E-01
   1.9984245E-02  -4.1261864E-01   4.2855954E-01
   3.2567024E-02  -4.0146208E-01   4.4182897E-01
  -9.2803450E+00  -7.9525942E-01   3.3112545E+00
  -9.6056089E+00  -8.1534088E-01   3.3920851E+00
  -9.9412222E+00  -8.3659959E-01   3.4730885E+00
  -1.0287594E+01  -8.5917395E-01   3.5540249E+00
  -1.0645191E+01  -8.8322121E-01   3.6346278E+00
  -1.1014541E+01  -9.0892041E-01   3.7146006E+00
  -1.1396246E+01  -9.3647492E-01   3.7936113E+00
  -1.1790993E+01  -9.6611559E-01   3.8712857E+00
  -1.2199555E+01  -9.9810427E-01   3.9471993E+00
  -1.2622816E+01  -1.0327380E+00   4.0208683E+00
  -1.3061766E+01  -1.0703532E+00   4.0917363E+00
  -1.3517518E+01  -1.1113311E+00   4.1591630E+00
  -1.3991318E+01  -1.1561033E+00   4.2224064E+00
  -1.4484543E+01  -1.2051581E+00   4.2806067E+00
  -1.4998713E+01  -1.2590488E+00   4.3327670E+00
  -1.5535491E+01  -1.3184015E+00   4.3777332E+00
  -1.6096678E+01  -1.3839245E+00   4.4141722E+00
  -1.6684216E+01  -1.4564210E+00   4.4405508E+00
  -1.7300177E+01  -1.5368016E+00   4.4551191E+00
  -1.7946747E+01  -1.6261008E+00   4.4558868E+00
  -1.8626236E+01  -1.7254964E+00   4.4406123E+00
  -1.9341049E+01  -1.8363343E+00   4.4067841E+00
  -2.0093695E+01  -1.9601579E+00   4.3516092E+00
  -2.0886780E+01  -2.0987461E+00   4.2719955E+00
  -2.1723011E+01  -2.2541587E+00   4.1645265E+00
  -2.2605202E+01  -2.4288073E+00   4.0254374E+00
  -2.3536280E+01  -2.6255159E+00   3.8505521E+00
  -2.4519281E+01  -2.8476267E+00   3.6352224E+00
  -2.5557329E+01  -3.0991156E+00   3.3742406E+00
  -2.6653572E+01  -3.3847432E+00   3.0617435E+00
  -2.7811096E+01  -3.7102418E+00   2.6911142E+00
  -2.9032806E+01  -4.0825486E+00   2.2548957E+00
  -3.0321268E+01  -4.5101080E+00   1.7447095E+00
  -3.1678562E+01  -5.0032425E+00   1.1511713E+00
  -3.3106064E+01  -5.5746183E+00   4.6374154E-01
  -3.4604183E+01  -6.2397881E+00  -3.2956147E-01
  -3.6171799E+01  -7.0177846E+00  -1.2426658E+00
  -3.7805225E+01  -7.9316583E+00  -2.2922158E+00
  -3.9496166E+01  -9.0087509E+00  -3.4984908E+00
  -4.1228230E+01  -1.0280340E+01  -4.8860979E+00
  -4.2971485E+01  -1.1780064E+01  -6.4836159E+00
  -4.4675137E+01  -1.3540309E+01  -8.3208313E+00
  -4.6259247E+01  -1.5585636E+01  -1.0421810E+01
  -4.7608219E+01  -1.7922413E+01  -1.2792117E+01
  -4.8570751E+01  -2.0524792E+01  -1.5399849E+01
  -4.8972305E+01  -2.3318792E+01  -1.8152668E+01
  -4.8645782E+01  -2.6169415E+01  -2.0877720E+01
  -4.7480835E+01  -2.8878433E+01  -2.3315594E+01
  -4.5482185E+01  -3.1201443E+01  -2.5140755E+01
  -4.2815281E+01  -3.2888069E+01  -2.6014580E+01
  -3.9812157E+01  -3.3738430E+01  -2.5661755E+01
  -3.6921455E+01  -3.3656487E+01  -2.3943123E+01
  -3.4613197E+01  -3.2677078E+01  -2.0892441E+01
  -3.3274700E+01  -3.0953018E+01  -1.6698238E+01
  -1.8228531E-01  -3.9503098E-01   3.8053322E-01
  -1.2444592E-01  -4.2831039E-01   3.6119843E-01
  -7.0181847E-02  -4.4422913E-01   3.5840797E-01
  -2.5058746E-02  -4.4660187E-01   3.6743641E-01
   8.8233948E-03  -4.3975830E-01   3.8335943E-01
   3.1923294E-02  -4.2760468E-01   4.0206194E-01
   4.5963287E-02  -4.1308737E-01   4.2074585E-01
  -9.3173475E+00  -7.1366262E-01   3.3203926E+00
  -9.6443634E+00  -7.3057753E-01   3.4007115E+00
  -9.9818764E+00  -7.4849313E-01   3.4811296E+00
  -1.0330315E+01  -7.6752657E-01   3.5614028E+00
  -1.0690165E+01  -7.8781134E-01   3.6412621E+00
  -1.1061978E+01  -8.0949920E-01   3.7204061E+00
  -1.1446386E+01  -8.3276260E-01   3.7984991E+00
  -1.1844102E+01  -8.5779768E-01   3.8751614E+00
  -1.2255937E+01  -8.8482678E-01   3.9499633E+00
  -1.2682808E+01  -9.1410244E-01   4.0224123E+00
  -1.3125754E+01  -9.4591111E-01   4.0919437E+00
  -1.3585937E+01  -9.8057753E-01   4.1579046E+00
  -1.4064657E+01  -1.0184702E+00   4.2195387E+00
  -1.4563356E+01  -1.0600065E+00   4.2759676E+00
  -1.5083629E+01  -1.1056604E+00   4.3261709E+00
  -1.5627218E+01  -1.1559687E+00   4.3689642E+00
  -1.6196020E+01  -1.2115412E+00   4.4029775E+00
  -1.6792084E+01  -1.2730703E+00   4.4266348E+00
  -1.7417601E+01  -1.3413439E+00   4.4381275E+00
  -1.8074903E+01  -1.4172595E+00   4.4353995E+00
  -1.8766460E+01  -1.5018431E+00   4.4161258E+00
  -1.9494873E+01  -1.5962715E+00   4.3776937E+00
  -2.0262871E+01  -1.7019011E+00   4.3171887E+00
  -2.1073332E+01  -1.8203027E+00   4.2313685E+00
  -2.1929287E+01  -1.9533048E+00   4.1166310E+00
  -2.2833935E+01  -2.1030633E+00   3.9689794E+00
  -2.3790682E+01  -2.2721176E+00   3.7839468E+00
  -2.4803146E+01  -2.4634957E+00   3.5565143E+00
  -2.5875164E+01  -2.6808290E+00   3.2809982E+00
  -2.7010763E+01  -2.9285042E+00   2.9509203E+00
  -2.8214123E+01  -3.2118554E+00   2.5588622E+00
  -2.9489498E+01  -3.5374117E+00   2.0963171E+00
  -3.0841160E+01  -3.9132202E+00   1.5535176E+00
  -3.2273293E+01  -4.3492560E+00   9.1921163E-01
  -3.3789921E+01  -4.8579545E+00   1.8032134E-01
  -3.5394703E+01  -5.4548540E+00  -6.7863965E-01
  -3.7090420E+01  -6.1593418E+00  -1.6764868E+00
  -3.8877831E+01  -6.9954228E+00  -2.8366804E+00
  -4.0753273E+01  -7.9923210E+00  -4.1889381E+00
  -4.2704319E+01  -9.1845322E+00  -5.7706575E+00
  -4.4702774E+01  -1.0610739E+01  -7.6271267E+00
  -4.6694763E+01  -1.2310616E+01  -9.8086891E+00
  -4.8588760E+01  -1.4318357E+01  -1.2362377E+01
  -5.0244663E+01  -1.6651588E+01  -1.5315327E+01
  -5.1469711E+01  -1.9295324E+01  -1.8648399E+01
  -5.2030273E+01  -2.2182220E+01  -2.2262280E+01
  -5.1688629E+01  -2.5174446E+01  -2.5944447E+01
  -5.0268459E+01  -2.8056492E+01  -2.9353588E+01
  -4.7738586E+01  -3.0551180E+01  -3.2042435E+01
  -4.4284164E+01  -3.2365784E+01  -3.3532078E+01
  -4.0323158E+01  -3.3261917E+01  -3.3427032E+01
  -3.6439861E+01  -3.3124119E+01  -3.1529205E+01
  -3.3248825E+01  -3.1995327E+01  -2.7896515E+01
  -3.1245218E+01  -3.0060549E+01  -2.2814728E+01
  -1.8716793E+01  -1.6900259E+01  -9.9970112E+00
  -1.4851761E-01  -4.5334816E-01   3.0927849E-01
  -7.7277184E-02  -4.6747684E-01   3.0658817E-01
  -2.0201683E-02  -4.6631050E-01   3.2064819E-01
   2.0905495E-02  -4.5541382E-01   3.4380817E-01
   4.7473907E-02  -4.3942833E-01   3.7013054E-01
   6.2430382E-02  -4.2166138E-01   3.9577484E-01
  -9.3487949E+00  -6.3042617E-01   3.3288946E+00
  -9.6772861E+00  -6.4402884E-01   3.4088163E+00
  -1.0016397E+01  -6.5844280E-01   3.4887762E+00
  -1.0366572E+01  -6.7376274E-01   3.5685279E+00
  -1.0728314E+01  -6.9009691E-01   3.6477990E+00
  -1.1102196E+01  -7.0756835E-01   3.7262857E+00
  -1.1488868E+01  -7.2631681E-01   3.8036475E+00
  -1.1889070E+01  -7.4650145E-01   3.8795011E+00
  -1.2303641E+01  -7.6830286E-01   3.9534116E+00
  -1.2733535E+01  -7.9192609E-01   4.0248804E+00
  -1.3179821E+01  -8.1760418E-01   4.0933337E+00
  -1.3643707E+01  -8.4560162E-01   4.1581106E+00
  -1.4126538E+01  -8.7621868E-01   4.2184410E+00
  -1.4629813E+01  -9.0979624E-01   4.2734303E+00
  -1.5155186E+01  -9.4672167E-01   4.3220391E+00
  -1.5704468E+01  -9.8743469E-01   4.3630571E+00
  -1.6279640E+01  -1.0324359E+00   4.3950844E+00
  -1.6882835E+01  -1.0822948E+00   4.4165044E+00
  -1.7516357E+01  -1.1376607E+00   4.4254632E+00
  -1.8182655E+01  -1.1992761E+00   4.4198451E+00
  -1.8884346E+01  -1.2679923E+00   4.3972559E+00
  -1.9624189E+01  -1.3447884E+00   4.3549967E+00
  -2.0405121E+01  -1.4307977E+00   4.2900467E+00
  -2.1230251E+01  -1.5273383E+00   4.1990328E+00
  -2.2102900E+01  -1.6359512E+00   4.0781937E+00
  -2.3026615E+01  -1.7584646E+00   3.9233303E+00
  -2.4005239E+01  -1.8970418E+00   3.7297192E+00
  -2.5042917E+01  -2.0542784E+00   3.4920120E+00
  -2.6144146E+01  -2.2333090E+00   3.2041006E+00
  -2.7313776E+01  -2.4379478E+00   2.8589528E+00
  -2.8557020E+01  -2.6728711E+00   2.4484222E+00
  -2.9879444E+01  -2.9438570E+00   1.9630327E+00
  -3.1286968E+01  -3.2581015E+00   1.3917168E+00