<?xml version="1.0"?>
<VTKFile type="StructuredGrid" version="0.1" byte_order="LittleEndian" header_type="UInt32" compressor="vtkZLibDataCompressor">
  <StructuredGrid WholeExtent="0 60 0 20 0 20">
  <Piece Extent="0 60 0 20 0 20">
    <PointData Vectors="B_total">
      <DataArray type="Float32" Name="B_total" NumberOfComponents="3" format="ascii" RangeMin="0" RangeMax="56879.161267053096">
        -10.355449 -1.5275406 3.1698015 -10.700631 -1.5693964 3.2580392
        -11.05477 -1.6127539 3.3470204 -11.418054 -1.6577773 3.4364276
        -11.790719 -1.7046579 3.5259004 -12.173038 -1.7536159 3.6150289
        -12.565337 -1.8049049 3.7033498 -12.968005 -1.8588145 3.790339
        -13.381494 -1.9156746 3.8754027 -13.806324 -1.9758589 3.9578698
        -14.2431 -2.0397906 4.0369825 -14.692509 -2.107946 4.111886
        -15.155322 -2.1808603 4.181615 -15.632399 -2.2591333 4.2450843
        -16.124687 -2.3434374 4.3010764 -16.633213 -2.4345229 4.348231
        -17.159071 -2.5332284 4.385034 -17.703426 -2.6404915 4.40981
        -18.267475 -2.7573602 4.420721 -18.852442 -2.8850095 4.4157596
        -19.459543 -3.0247605 4.3927574 -20.089962 -3.1781013 4.349393
        -20.744812 -3.3467183 4.283205 -21.4251 -3.532528 4.1916075
        -22.131678 -3.7377186 4.071911 -22.86518 -3.9648004 3.9213457
        -23.625957 -4.2166595 3.7370894 -24.41398 -4.4966264 3.5162942
        -25.2287 -4.808545 3.2561321 -26.068888 -5.1568584 2.9538686
        -26.932419 -5.546688 2.6069648 -27.816013 -5.9839306 2.2132523
        -28.714947 -6.475329 1.7711716 -29.62273 -7.0285397 1.2801042
        -30.53081 -7.652135 0.74077594 -31.428265 -8.355493 0.1557316
        -32.30155 -9.148521 -0.47016978 -33.134308 -10.041064 -1.129243
        -33.907135 -11.041863 -1.8104885 -34.597507 -12.156893 -2.499051
        -35.17978 -13.386929 -3.1755211 -35.62563 -14.72431 -3.8148665
        -35.90537 -16.149054 -4.3848367 -35.990814 -17.624853 -4.8437924
        -35.860565 -19.095982 -5.1385117 -35.507793 -20.486395 -5.2028613
        -34.95001 -21.702612 -4.9587927 -34.23849 -22.641216 -4.3207226
        -33.46409 -23.200851 -3.2033293 0.06264937 -0.42668152 0.25043297
        0.09341359 -0.4085331 0.26171017 0.11747646 -0.38534927 0.28139496
        0.13276291 -0.3595972 0.3072257 0.1386795 -0.3339424 0.33635926
        0.1360507 -0.31069756 0.36599278 0.1267128 -0.29145336 0.39383984
        0.11295509 -0.2769432 0.4183892 0.09699774 -0.26714754 0.43891388
        0.080667496 -0.26152563 0.45533085 0.06524944 -0.25925875 0.46799028
        0.05151081 -0.25947213 0.47744775 -10.400354 -1.4229099 3.1614876
        -10.746994 -1.4612594 3.2478344 -11.102746 -1.500979 3.3347538
        -11.467828 -1.542219 3.4219227 -11.842499 -1.5851549 3.5089757
        -12.227068 -1.6299886 3.5954978 -12.621898 -1.6769532 3.6810207
        -13.027411 -1.7263148 3.7650142 -13.444102 -1.7783777 3.8468788
        -13.87254 -1.8334864 3.9259367 -14.313378 -1.8920325 4.001422
        -14.767356 -1.9544569 4.0724688 -15.235302 -2.0212574 4.138102
        -15.718143 -2.092993 4.197222 -16.216888 -2.1702924 4.2485948
        -16.732643 -2.2538602 4.290838 -17.26659 -2.3444893 4.322411
        -17.819979 -2.4430695 4.341608 -18.394115 -2.5506034 4.346548
        -18.990343 -2.668224 4.3351746 -19.610016 -2.7972138 4.305254
        -20.254484 -2.9390342 4.2543817 -20.925047 -3.0953557 4.1799884
        -21.622942 -3.2680998 4.0793486 -22.349293 -3.4594865 3.9495938
        -23.105053 -3.6720932 3.7877169 -23.89096 -3.9089258 3.5905979
        -24.707434 -4.173503 3.3550012 -25.554455 -4.4699545 3.0776105
        -26.431423 -4.803133 2.7550724 -27.336945 -5.1787496 2.3840685
        -28.26859 -5.6035175 1.9614462 -29.222597 -6.085305 1.484396
        -30.193558 -6.6332874 0.9506962 -31.174038 -7.2580442 0.35901153
        -32.15416 -7.971566 -0.2907717 -33.12112 -8.787068 -0.9971803
        -34.05858 -9.718452 -1.7567629 -34.945854 -10.779236 -2.563591
        -35.756992 -11.980701 -3.4085093 -36.459816 -13.32902 -4.277851
        -37.01534 -14.821218 -5.151305 -37.378387 -16.440014 -5.9985924
        -37.500664 -18.148159 -6.775114 -37.33745 -19.883366 -7.4173045
        -36.858772 -21.555794 -7.839405 -36.064312 -23.050426 -7.934149
        -34.998768 -24.236322 -7.5795374 -33.762516 -24.98296 -6.652378
        -32.51131 -25.181063 -5.0462303 -2.8230343 -2.6586761 -0.064715385
        0.144773 -0.35978508 0.23255348 0.16078138 -0.3297615 0.26817226
        0.16456509 -0.30128765 0.30740356 0.15769768 -0.27704906 0.3462944
        0.14303303 -0.25860977 0.38175964 0.12380695 -0.24639511 0.412027
        0.10295391 -0.23990297 0.43646544 0.08267021 -0.23807049 0.45529816
        0.06436491 -0.23966551 0.4692567 0.048710823 -0.24350071 0.47926235
        -10.432589 -1.3119941 3.1507783 -10.780294 -1.3466239 3.2353764
        -11.137251 -1.382486 3.3204 -11.503699 -1.4197162 3.4055228
        -11.879928 -1.4584734 3.4903758 -12.266273 -1.4989405 3.574542
        -12.663129 -1.5413285 3.6575496 -13.070954 -1.5858793 3.7388654
        -13.490284 -1.6328691 3.8178864 -13.92173 -1.682612 3.893931
        -14.365988 -1.7354647 3.966229 -14.82385 -1.7918305 4.033909
        -15.296201 -1.8521656 4.095988 -15.784023 -1.9169836 4.1513567
        -16.288397 -1.9868642 4.1987696 -16.8105 -2.0624607 4.2368283
        -17.351593 -2.1445096 4.2639737 -17.91302 -2.2338438 4.278472
        -18.496193 -2.331407 4.278409 -19.10258 -2.4382722 4.2616835
        -19.733675 -2.555665 4.226005 -20.390997 -2.6849916 4.1688914
        -21.07606 -2.8278754 4.0876703 -21.790335 -2.9862015 3.9794831
        -22.535242 -3.162171 3.8412807 -23.312098 -3.358366 3.6698296
        -24.122065 -3.577837 3.4616966 -24.96608 -3.824198 3.2132518
        -25.844757 -4.1017504 2.920667 -26.75825 -4.4156275 2.5799239
        -27.706074 -4.7719707 2.1868522 -28.68689 -5.178132 1.7371899
        -29.698229 -5.642905 1.2266812 -30.73617 -6.1767693 0.651201
        -31.794937 -6.792114 0.006904237 -32.866344 -7.503381 -0.70963323
        -33.93909 -8.327026 -1.5012577 -34.997684 -9.281132 -2.3700233
        -36.02098 -10.384411 -3.3167899 -36.98022 -11.65431 -4.3403068
        -37.836815 -13.103848 -5.4353642 -38.540257 -14.736795 -6.5893984
        -39.027576 -16.54126 -7.777093 -39.225872 -18.48186 -8.952985
        -39.060352 -20.492077 -10.043154 -38.469353 -22.469015 -10.938574
        -37.42605 -24.274284 -11.494105 -35.962837 -25.744337 -11.537456
        -34.19019 -26.711826 -10.890222 -32.299793 -27.035158 -9.398222
        -30.544569 -26.627838 -6.9620004 -3.978066 -3.872448 -0.34550476
        0.191885 -0.27960968 0.23145676 0.19141388 -0.2500744 0.28302288
        0.1781416 -0.22733593 0.33249426 0.15633392 -0.21261501 0.37604094
        0.13042355 -0.20565224 0.41177297 0.10408401 -0.20514774 0.4393922
        0.07980633 -0.20937443 0.45969683 0.05893898 -0.21661043 0.47399813
        0.041918278 -0.22539377 0.4836957 -10.454197 -1.1951039 3.1372485
        -10.802649 -1.2258242 3.2202265 -11.160472 -1.2576343 3.3035069
        -11.527933 -1.2906555 3.3867612 -11.905341 -1.3250284 3.4696198
        -12.293059 -1.3609164 3.5516634 -12.691513 -1.3985077 3.6324198
        -13.101195 -1.4380182 3.7113547 -13.522672 -1.4796948 3.7878652
        -13.956594 -1.523819 3.861267 -14.403703 -1.5707104 3.930789
        -14.864834 -1.6207316 3.9955568 -15.340925 -1.6742933 4.054584
        -15.833015 -1.7318598 4.1067557 -16.342245 -1.7939558 4.150818
        -16.869862 -1.8611755 4.185363 -17.417208 -1.9341918 4.2088146
        -17.985716 -2.0137687 4.21942 -18.576904 -2.1007767 4.2152367
        -19.192354 -2.1962116 4.194126 -19.833714 -2.3012185 4.1537447
        -20.502672 -2.4171216 4.0915403 -21.20095 -2.5454607 4.004748
        -21.930275 -2.6880383 3.8903787 -22.692373 -2.8469796 3.7452126
        -23.488937 -3.0248013 3.5657876 -24.3216 -3.2245057 3.3483684
        -25.19186 -3.4496899 3.0889258 -26.101036 -3.7046878 2.7831054
        -27.05014 -3.9947386 2.4262006 -28.03975 -4.3261995 2.013133
        -29.069824 -4.7068024 1.5384357 -30.139479 -5.145952 0.9962455
        -31.246683 -5.655071 0.38027853 -32.387833 -6.2479424 -0.3162226
        -33.557133 -6.9410257 -1.1005994 -34.745644 -7.7536077 -1.9809147
        -35.93978 -8.707632 -2.9660404 -37.119106 -9.826932 -4.0654716
        -38.253227 -11.135443 -5.2884026 -39.29795 -12.653975 -6.641409
        -40.191254 -14.394855 -8.123745 -40.85067 -16.354282 -9.719515
        -41.174515 -18.502314 -11.386326 -41.05042 -20.771929 -13.041639
        -40.374416 -23.05007 -14.550385 -39.081314 -25.175556 -15.719999
        -37.1818 -26.949535 -16.31057 -34.79448 -28.161873 -16.065248
        -32.156155 -28.631104 -14.758479 -29.596645 -28.246534 -12.247948
        -27.47829 -26.996563 -8.509017 0.22407627 -0.20357704 0.205863
        0.21626186 -0.17629433 0.2712965 0.19387245 -0.15913296 0.33156013
        0.16302681 -0.15238762 0.38225746 0.12950993 -0.15462112 0.42176723
        0.09762955 -0.16346169 0.4506154 0.06991768 -0.1763525 0.4704864
        0.04739952 -0.19111872 0.483457 0.030038834 -0.20612764 0.49149144
        -10.467362 -1.0726157 3.121361 -10.81631 -1.099256 3.2028558
        -11.174734 -1.1268398 3.2845516 -11.54292 -1.1554725 3.3661203
        -11.921202 -1.1852771 3.4471912 -12.309965 -1.2163959 3.5273464
        -12.709661 -1.248993 3.6061134 -13.120809 -1.2832576 3.6829593
        -13.544008 -1.3194053 3.7572813 -13.979946 -1.3576827 3.8283963
        -14.429401 -1.3983706 3.8955338 -14.893251 -1.4417875 3.9578185
        -15.37248 -1.488295 4.0142627 -15.868178 -1.5383031 4.06375
        -16.381546 -1.5922766 4.105021 -16.91389 -1.650743 4.1366606
        -17.466635 -1.7143022 4.157083 -18.041292 -1.783638 4.1645193
        -18.639477 -1.8595335 4.1570034 -19.2629 -1.9428891 4.1323643
        -19.913338 -2.0347457 4.0882134 -20.592653 -2.136315 4.021936
        -21.30277 -2.2490153 3.930679 -22.045671 -2.3745189 3.811336
        -22.823395 -2.5148122 3.6605246 -23.638016 -2.6722662 3.4745653
        -24.491642 -2.8497357 3.2494304 -25.386368 -3.0506718 2.9807003
        -26.324245 -3.2792752 2.6635008 -27.30722 -3.5406818 2.2924309
        -28.337029 -3.8411977 1.8614805 -29.415089 -4.188597 1.3639265
        -30.542318 -4.592473 0.79219943 -31.718895 -5.0646615 0.13767613
        -32.943863 -5.619706 -0.60961294 -34.214447 -6.275324 -1.4614053
        -35.524944 -7.0527787 -2.4317412 -36.864822 -7.9769793 -3.5374837
        -38.21578 -9.076036 -4.798536 -39.54741 -10.379797 -6.2371397
        -40.811493 -11.916759 -7.87529 -41.935486 -13.708624 -9.7288885
        -42.816963 -15.761734 -11.797235 -43.322205 -18.055069 -14.046827
        -43.294155 -20.525953 -16.390533 -42.574986 -23.056564 -18.666395
        -41.04666 -25.467533 -20.625248 -38.68502 -27.526814 -21.93983
        -35.611435 -28.980406 -22.246344 -32.115807 -29.603188 -21.217203
        -28.626957 -29.256138 -18.64529 -25.626953 -27.92654 -14.503349
        -23.536964 -25.731133 -8.947245 0.2344675 -0.078769684 0.28395367
        0.19991112 -0.07282829 0.3528843 0.15844917 -0.07947159 0.40738297
        0.11712456 -0.095505714 0.44688797 0.08053398 -0.1172142 0.47330356
        0.050827026 -0.14127445 0.4895903 0.028300285 -0.16517639 0.49873275
        0.012209892 -0.18735409 0.5032327 -10.474242 -0.9450361 3.1042418
        -10.823497 -0.9674438 3.1844108 -11.18232 -0.9906452 3.2647004
        -11.551011 -1.0147293 3.3447828 -11.929924 -1.0398002 3.4242887
        -12.319465 -1.0659784 3.5028005 -12.720105 -1.0934036 3.5798478
        -13.132393 -1.1222357 3.6548996 -13.556954 -1.1526581 3.7273545
        -13.994506 -1.1848807 3.7965322 -14.445861 -1.2191424 3.8616621
        -14.911933 -1.2557153 3.9218721 -15.393746 -1.2949078 3.9761748
        -15.892439 -1.3370711 4.023452 -16.409264 -1.3826044 4.0624437
        -16.945585 -1.431961 4.091729 -17.502892 -1.4856594 4.109716
        -18.082775 -1.5442915 4.1146216 -18.686945 -1.6085384 4.1044626
        -19.317213 -1.6791866 4.07704 -19.975496 -1.75715 4.0299277
        -20.66381 -1.8434969 3.9604535 -21.384275 -1.9394857 3.8656874
        -22.139112 -2.046609 3.7424157 -22.930662 -2.1666496 3.5871077
        -23.761366 -2.3017514 3.395885 -24.633797 -2.4545128 3.1644452
        -25.55064 -2.6281018 2.8880012 -26.51469 -2.8264053 2.561183
        -27.528826 -3.054219 2.177919 -28.595985 -3.3174949 1.731287
        -29.719105 -3.6236472 1.2133138 -30.901028 -3.981939 0.61470425
        -32.144344 -4.4039526 -0.075560905 -33.451042 -4.904135 -0.87079775
        -34.821857 -5.500387 -1.7874048 -36.255043 -6.2146297 -2.8458729
        -37.74417 -7.0731745 -4.0718784 -39.274506 -8.106641 -5.497095
        -40.81748 -9.348948 -7.158996 -42.322994 -10.8347 -9.098355
        -43.709988 -12.593985 -11.35253 -44.85709 -14.643594 -13.942299
        -45.59733 -16.973782 -16.85026 -45.723648 -19.531185 -19.99094
        -45.01394 -22.200895 -23.177494 -43.282387 -24.794977 -26.097473
        -40.45446 -27.058025 -28.31729 -36.64537 -28.70002 -29.335426
        -32.203136 -29.45674 -28.687386 -27.676556 -29.161964 -26.07501
        -23.697792 -27.800217 -21.462753 -20.8192 -25.512669 -15.088115
        -13.92979 -16.27946 -5.2340975 0.19023514 0.02590561 0.40713882
        0.13746071 0.00026988983 0.4587183 0.08936119 -0.033800125 0.49170113
        0.05013752 -0.071208954 0.51007557 0.020898819 -0.10804796 0.5183544
        0.00078964233 -0.14184141 0.5204092 -0.011936188 -0.17135978 0.51909083
        -10.476829 -0.81301725 3.0873885 -10.82626 -0.83105963 3.166418
        -11.185332 -0.84974205 3.245506 -11.554364 -0.8691369 3.324326
        -11.933719 -0.8893287 3.4025095 -12.323823 -0.91041535 3.479641
        -12.725167 -0.9325102 3.5552523 -13.138319 -0.95574355 3.6288137
        -13.56393 -0.9802648 3.6997268 -14.00274 -1.0062449 3.7673137
        -14.455591 -1.0338788 3.8308065 -14.92343 -1.0633886 3.889335
        -15.407314 -1.095027 3.941912 -15.908422 -1.1290815 3.9874225
        -16.42805 -1.1658796 4.0246034 -16.967613 -1.2057952 4.0520334
        -17.528656 -1.2492548 4.0681124 -18.112843 -1.2967491 4.07105
        -18.72196 -1.348843 4.058848 -19.357918 -1.4061913 4.0292845
        -20.022745 -1.4695584 3.9799004 -20.718601 -1.5398407 3.907977
        -21.447784 -1.6180996 3.8105175 -22.212729 -1.7055991 3.6842139
        -23.016043 -1.8038572 3.5254064 -23.860512 -1.9147085 3.330039
        -24.74914 -2.0403895 3.0935676 -25.68515 -2.1836443 2.8108752
        -26.672035 -2.3478613 2.4761405 -27.713573 -2.5372548 2.082679
        -28.813845 -2.7570944 1.6227221 -29.977266 -3.0140038 1.0871263
        -31.20859 -3.3163419 0.46495682 -32.51282 -3.6746716 -0.2571126
        -33.894978 -4.1023293 -1.0956542 -35.35951 -4.6160736 -2.0716786
        -36.909023 -5.236765 -3.212162 -38.54187 -5.989935 -4.5518017
        -40.24802 -6.906044 -6.134612 -42.002396 -8.019943 -8.014467
        -43.75529 -9.36891 -10.253071 -45.41983 -10.988165 -12.912802
        -46.858303 -12.902655 -16.04126 -47.87182 -15.113792 -19.644115
        -48.201725 -17.581152 -23.64502 -47.555283 -20.201576 -27.837341
        -45.66721 -22.793169 -31.843544 -42.398163 -25.096493 -35.110485
        -37.84622 -26.806324 -36.97323 -32.41764 -27.637056 -36.798344
        -26.795914 -27.405247 -34.171032 -21.78737 -26.092464 -29.041191
        -18.097326 -23.853645 -21.744057 -16.142057 -20.964306 -12.876572
        0.1591587 0.12391663 0.5031223 0.0959034 0.07541466 0.54136086
        0.043613434 0.021158218 0.55869484 0.005147934 -0.0326972 0.56181717
        -0.02021408 -0.082095146 0.5567963 -0.03493595 -0.1250019 0.5481205
        -0.041894913 -0.16087794 0.5385908 -10.476851 -0.6773375 3.0723894
        -10.826369 -0.6909039 3.1504955 -11.18559 -0.7049534 3.2286148
        -11.554836 -0.71954095 3.3064213 -11.934488 -0.73473096 3.383548
        -12.324986 -0.7505979 3.4595819 -12.726832 -0.76722795 3.5340552
        -13.140615 -0.7847204 3.606442 -13.566999 -0.8031891 3.6761456
        -14.00675 -0.8227645 3.7424905 -14.460729 -0.8435952 3.8047109
        -14.929909 -0.865851 3.8619392 -15.415377 -0.88972515 3.9131904
        -15.91834 -0.91543794 3.9573493 -16.44013 -0.94324046 3.993154
        -16.982208 -0.9734198 4.0191813 -17.546162 -1.0063047 4.033828
        -18.133713 -1.0422735 4.0352955 -18.746714 -1.081763 4.021575
        -19.38715 -1.1252812 3.9904265 -20.057154 -1.1734221 3.939365
        -20.758999 -1.2268851 3.8656332 -21.495125 -1.2865006 3.76618
        -22.268152 -1.3532614 3.637619 -23.080917 -1.428362 3.476191
        -23.936493 -1.5132556 3.277685 -24.838245 -1.6097178 3.037358
        -25.789875 -1.7199385 2.749815 -26.795473 -1.8466353 2.408856
        -27.859596 -1.9932053 2.0072713 -28.98734 -2.1639237 1.5365673
        -30.184448 -2.3641992 0.9865827 -31.457378 -2.6009061 0.34494984
        -32.813343 -2.8828022 -0.40370148 -34.26021 -3.2210526 -1.2788606
        -35.805923 -3.6298313 -2.3057113 -37.45735 -4.127002 -3.5171795
        -39.21776 -4.7347674 -4.956383 -41.082222 -5.4801035 -6.6790504
        -43.03018 -6.394637 -8.755004 -45.014084 -7.5133405 -11.266836
        -46.94404 -8.871126 -14.302827 -48.66973 -10.495936 -17.93975
        -49.964516 -12.397086 -22.21069 -50.521606 -14.548025 -27.054707
        -49.97849 -16.865486 -32.25251 -47.98696 -19.19151 -37.36641
        -44.334946 -21.290768 -41.722507 -39.093822 -22.87756 -44.48227
        -32.722237 -23.677996 -44.826424 -26.040136 -23.512753 -42.208153
        -20.035809 -22.362196 -36.557568 -15.574905 -20.376167 -28.31572
        -13.156467 -17.820417 -18.267696 -5.458414 -6.332696 -2.7599926
        0.03272438 0.12955284 0.6546707 -0.019678116 0.057024956 0.645998
        -0.053117752 -0.010529518 0.6262932 -0.07082176 -0.06952429 0.6028528
        -0.07712746 -0.11876965 0.5801606 -0.07606888 -0.15860486 0.5604159
        -10.475698 -0.5388649 3.06069 -10.825252 -0.54786956 3.1381164
        -11.184547 -0.55719745 3.2155244 -11.553922 -0.5668859 3.2925897
        -11.933758 -0.57697815 3.368946 -12.324508 -0.58752465 3.4441817
        -12.726687 -0.5985837 3.5178313 -13.140893 -0.6102226 3.58937
        -13.567806 -0.6225181 3.6582031 -14.008204 -0.63555884 3.7236574
        -14.462965 -0.6494454 3.7849689 -14.933082 -0.664293 3.8412714
        -15.419661 -0.68023276 3.8915825 -15.923933 -0.69741434 3.9347873
        -16.447256 -0.7160086 3.9696245 -16.991121 -0.73621106 3.9946694
        -17.557152 -0.75824577 4.008317 -18.147108 -0.78237116 4.008764
        -18.762894 -0.80888605 3.9939923 -19.406557 -0.83813846 3.9617505
        -20.080294 -0.87053585 3.9095333 -20.78647 -0.9065596 3.8345556
        -21.527634 -0.94678116 3.7337255 -22.306547 -0.99188626 3.6035993
        -23.126213 -1.0427012 3.44034 -23.989931 -1.1002332 3.2396252
        -24.901337 -1.1657166 2.9965591 -25.864496 -1.2406769 2.705539
        -26.883966 -1.3270133 2.360075 -27.964909 -1.4271073 1.9525585
        -29.113214 -1.5439663 1.4739369 -30.335659 -1.6814097 0.9132621
        -31.640072 -1.8443145 0.2570481 -33.03545 -2.0389266 -0.51167655
        -34.53193 -2.2732508 -1.4147136 -36.140392 -2.5575247 -2.4805784
        -37.87129 -2.9047549 -3.747002 -39.732105 -3.3312664 -5.263977
        -41.722588 -3.8571434 -7.0969386 -43.826607 -4.506312 -9.329141
        -45.99955 -5.305824 -12.061153 -48.1506 -6.283615 -15.404138
        -50.120926 -7.463626 -19.461494 -51.662735 -8.8571825 -24.292837
        -52.430126 -10.449656 -29.854935 -52.001106 -12.183528 -35.922626
        -49.953648 -13.942715 -42.010033 -46.007362 -15.548307 -47.338326
        -40.203655 -16.77788 -50.911495 -33.042015 -17.413944 -51.73718
        -25.461605 -17.311445 -49.1424 -18.613922 -16.45335 -43.036434
        -13.508831 -14.959262 -33.958103 -10.717937 -13.040879 -22.86708
        -10.279469 -10.93132 -10.801456 -0.047849655 0.14484262 0.7890129
        -0.095710754 0.06138277 0.7456417 -0.11996841 -0.012978077 0.6973734
        -0.12674713 -0.07564831 0.65202665 -0.12232494 -0.12644506 0.6133828
        -0.11174107 -0.16652751 0.58243483 -10.474383 -0.39851996 3.0534244
        -10.823942 -0.4029047 3.1304357 -11.18327 -0.40745074 3.2074108
        -11.552702 -0.4121771 3.284025 -11.932633 -0.41710585 3.3599133
        -12.323518 -0.42226282 3.4346652 -12.72588 -0.42767766 3.5078166
        -13.140322 -0.4333848 3.5788426 -13.567535 -0.43942356 3.6471508
        -14.008304 -0.44583908 3.7120688 -14.463518 -0.452683 3.7728345
        -14.934179 -0.4600142 3.8285825 -15.421409 -0.46789995 3.8783312
        -15.92645 -0.4764169 3.9209666 -16.450676 -0.48565274 3.9552274
        -16.995598 -0.49570778 3.9796886 -17.562859 -0.50669724 3.9927437
        -18.154247 -0.5187538 3.9925861 -18.771694 -0.53203124 3.9771938
        -19.41728 -0.54670846 3.9443061 -20.093252 -0.56299525 3.8914063
        -20.802027 -0.5811391 3.815692 -21.546225 -0.6014342 3.7140474
        -22.328684 -0.6242332 3.5829918 -23.152517 -0.64996076 3.4186409
        -24.02116 -0.67913437 3.2166033 -24.938425 -0.71238786 2.971889
        -25.9086 -0.7505039 2.6787658 -26.936531 -0.794456 2.3305652
        -28.027765 -0.84546417 1.9194269 -29.18869 -0.90506756 1.4359503
        -30.426748 -0.9752213 0.8686947 -31.750628 -1.0584192 0.20346482
        -33.170475 -1.1578574 -0.5777234 -34.697914 -1.277633 -1.4981421
        -36.34572 -1.4229909 -2.5884428 -38.12671 -1.6006081 -3.8894553
        -40.051224 -1.8188896 -5.455632 -42.122215 -2.0882208 -7.358775
        -44.326748 -2.4210522 -9.691031 -46.62261 -2.831599 -12.56505
        -48.91905 -3.33477 -16.10756 -51.05253 -3.9437342 -20.440556
        -52.762222 -4.6655035 -25.642757 -53.67703 -5.4938836 -31.68481
        -53.335297 -6.4002457 -38.339893 -51.264355 -7.324682 -45.09163
        -47.13523 -8.173176 -51.09016 -40.966026 -8.827964 -55.229992
        -33.281525 -9.171672 -56.39587 -25.101986 -9.124184 -53.823936
        -17.691711 -8.675565 -47.407375 -12.1604 -7.8904953 -37.754353
        -9.129198 -6.883083 -25.947998 -8.6275215 -5.778141 -13.1541
        -0.1356144 0.10848475 0.92516327 -0.17508698 0.026179552 0.84367085
        -0.18746567 -0.04479766 0.765399 -0.18170738 -0.10309017 0.6978917
        -0.16574669 -0.14936185 0.6435964 -0.14536953 -0.18525022 0.60197306
        -10.473522 -0.25724813 3.0513105 -10.823071 -0.25698403 3.1281848
        -11.182395 -0.25671822 3.2050166 -11.551835 -0.25645122 3.2814815
        -11.931783 -0.25618368 3.357215 -12.322698 -0.25591648 3.4318066
        -12.725105 -0.25565043 3.5047922 -13.139609 -0.25538668 3.5756478
        -13.566904 -0.25512645 3.6437814 -14.007776 -0.2548712 3.7085207
        -14.463121 -0.2546226 3.769104 -14.933944 -0.2543827 3.8246665
        -15.421365 -0.25415364 3.874226 -15.926638 -0.25393805 3.9166698
        -16.451138 -0.25373897 3.9507363 -16.996382 -0.25355968 3.9749997
        -17.564022 -0.2534041 3.9878533 -18.155851 -0.25327656 3.9874902
        -18.773813 -0.25318184 3.9718843 -19.42 -0.25312543 3.9387746
        -20.096672 -0.25311315 3.8856387 -20.806265 -0.2531513 3.8096695
        -21.55141 -0.25324646 3.707742 -22.33499 -0.25340542 3.5763638
        -23.16014 -0.25363386 3.4116342 -24.03034 -0.25393713 3.2091398
        -24.949465 -0.25431785 2.9638596 -25.921867 -0.25477508 2.6700182
        -26.95249 -0.25530136 2.3208888 -28.047 -0.2558793 1.9085292
        -29.211952 -0.25647646 1.4234264 -30.454996 -0.25703707 0.8539772
        -31.785109 -0.2574717 0.18575907 -33.21279 -0.2576416 -0.5995414
        -34.750153 -0.25733712 -1.525671 -36.410583 -0.25624946 -2.623972
        -38.20768 -0.25393265 -3.9362783 -40.15269 -0.24975991 -5.518483
        -42.249615 -0.24287464 -7.4444513 -44.486557 -0.23215015 -9.809216
        -46.822083 -0.21618302 -12.729339 -49.16551 -0.19336174 -16.336618
        -51.351814 -0.16205542 -20.759123 -53.116013 -0.1210165 -26.081831
        -54.07894 -0.069976956 -32.27998 -53.766182 -0.010411978 -39.126423
        -51.688576 0.053689897 -46.094944 -47.501015 0.11517331 -52.31265
        -41.213715 0.1630381 -56.6383 -33.36016 0.18815756 -57.9161
        -24.986774 0.18642938 -55.352062 -17.394249 0.15771854 -48.834145
        -11.72476 0.10744137 -38.993095 -8.615667 0.045467407 -26.952698
        -8.093718 -0.017505229 -13.920506 -0.2163353 0.019494444 1.0384808
        -0.24574852 -0.047977805 0.9232588 -0.24607277 -0.10465622 0.81932926
        -0.22850418 -0.15033096 0.73340225 -0.20217133 -0.1860908 0.6664388
        -0.17324257 -0.21355137 0.6163511 -10.473322 -0.1160037 3.0545938
        -10.822849 -0.11109203 3.1316133 -11.182142 -0.10601566 3.208596
        -11.551538 -0.10075675 3.2852173 -11.931432 -0.095294505 3.3611124
        -12.322275 -0.08960475 3.4358697 -12.724593 -0.083659574 3.5090253
        -13.138988 -0.07742682 3.580055 -13.566151 -0.07086964 3.6483655
        -14.006865 -0.06394579 3.7132843 -14.462022 -0.056607082 3.7740493
        -14.93262 -0.048798554 3.8297944 -15.419781 -0.040457465 3.8795378
        -15.924747 -0.031512383 3.9221659 -16.448893 -0.02188155 3.9564166
        -16.993725 -0.011471508 3.9808652 -17.560888 -0.00017482229 3.9939036
        -18.15217 0.01213257 3.993726 -18.769495 0.025594518 3.978309
        -19.41495 0.0403792 3.945393 -20.09077 0.05668443 3.89246
        -20.799377 0.07474491 3.816708 -21.54338 0.094841525 3.7150211
        -22.325617 0.11731293 3.5839176 -23.149195 0.14257197 3.4195158
        -24.017536 0.171125 3.2174256 -24.93445 0.20359927 2.9726598
        -25.904205 0.24077833 2.6794899 -26.931633 0.28364837 2.3312545
        -28.022251 0.33346146 1.9201058 -29.18242 0.3918177 1.4366602
        -30.419537 0.46077678 0.8695008 -31.742231 0.54300267 0.20447622
        -33.160564 0.6419537 -0.57633674 -34.68605 0.76212525 -1.4961139
        -36.331318 0.90934825 -2.5853643 -38.108994 1.0911417 -3.884694
        -40.029152 1.3170906 -5.4482236 -42.094406 1.5991844 -7.347249
        -44.29146 1.951971 -9.673181 -46.57768 2.392248 -12.537588
        -48.862045 2.9378536 -16.06571 -50.98107 3.6048527 -20.377651
        -52.674698 4.402358 -25.54991 -53.573837 5.324391 -31.551165
        -53.2205 6.339296 -38.15397 -51.146988 7.379557 -44.844017
        -47.029343 8.337859 -50.778057 -40.88878 9.077577 -54.861782
        -33.24944 9.465351 -55.99259 -25.12351 9.413711 -53.41652
        -17.763042 8.913013 -47.02874 -12.26738 8.037678 -37.4299
        -9.2532425 6.9192295 -25.690023 -8.752001 5.7013445 -12.961832
        -0.27612877 -0.10852909 1.1069546 -0.2964344 -0.15043163 0.9698887
        -0.28722763 -0.1845336 0.84999466 -0.2609272 -0.21150422 0.75293636
        -0.22718811 -0.23242676 0.67849517 -0.19229984 -0.24845123 0.6235395
        -10.473578 0.02425931 3.0630286 -10.823069 0.03378709 3.1404717
        -11.182298 0.043641295 3.2178955 -11.551599 0.053857934 3.294975
        -11.931358 0.064479046 3.3713443 -12.322026 0.07555345 3.4465911
        -12.724118 0.08713758 3.5202503 -13.13823 0.099296376 3.5917957
        -13.565043 0.11210436 3.6606333 -14.005333 0.12564684 3.726089
        -14.45998 0.1400212 3.787399 -14.929972 0.15533856 3.8436966
        -15.416414 0.17172545 3.893998 -15.920539 0.18932629 3.9371881
        -16.4437 0.20830588 3.9720058 -16.987389 0.22885266 3.9970253
        -17.553226 0.2511831 4.01064 -18.142971 0.27554637 4.0110474
        -18.758518 0.30223152 3.9962285 -19.401917 0.3315753 3.9639306
        -20.075356 0.36397305 3.9116473 -20.781197 0.39989257 3.836595
        -21.52198 0.43989143 3.7356806 -22.300455 0.48464054 3.6054602
        -23.119617 0.5349529 3.4421005 -23.982742 0.5918226 3.2412808
        -24.89346 0.65647495 2.9981112 -25.855797 0.7304323 2.7069976
        -26.874277 0.815601 2.3614628 -27.954018 0.9143861 1.9539206
        -29.100853 1.0298437 1.4753507 -30.32147 1.1658809 0.91485643
        -31.623589 1.3275166 0.25902712 -33.016045 1.5212193 -0.5089896
        -34.50878 1.7553316 -1.4108145 -36.112404 2.0405862 -2.474695
        -37.83699 2.3906937 -3.7379498 -39.68956 2.822957 -5.24995
        -41.669277 3.358768 -7.075219 -43.75933 4.0237174 -9.295645
        -45.914467 4.8468504 -12.009892 -48.04342 5.858251 -15.326471
        -49.987587 7.083808 -19.345482 -51.500717 8.535963 -24.122797
        -52.240643 10.199532 -29.61198 -51.79187 12.013865 -35.58704
        -49.741272 13.856473 -41.56633 -45.817394 15.538439 -46.78257
        -40.067 16.825136 -50.25888 -32.986664 17.48912 -51.024715
        -25.501583 17.38096 -48.42357 -18.742556 16.484781 -42.36772
        -13.701576 14.927062 -33.38333 -10.942427 12.931064 -22.407722
        -10.50621 10.742386 -10.456879 -0.3063488 -0.2512684 1.1194267
        -0.32042313 -0.26336193 0.9765034 -0.3059349 -0.27176666 0.85303974
        -0.27538872 -0.2778058 0.7538934 -0.2383089 -0.28232384 0.6782713
        -0.20083046 -0.28582287 0.62268883 -10.47368 0.16259581 3.0758977
        -10.823104 0.17667904 3.1540294 -11.182222 0.1912481 3.232172
        -11.551361 0.20635681 3.31 -11.9309 0.22206804 3.3871462
        -12.321274 0.2384547 3.463197 -12.722991 0.2556011 3.5376852
        -13.136635 0.2736042 3.6100826 -13.562871 0.29257536 3.6797934
        -14.002461 0.31264174 3.7461412 -14.456268 0.3339487 3.8083599
        -14.925262 0.3566618 3.8655808 -15.410529 0.38096958 3.9168181
        -15.913273 0.407087 3.9609566 -16.434826 0.43525895 3.9967332
        -16.976643 0.46576533 4.0227227 -17.54031 0.49892682 4.037322
        -18.127546 0.5351125 4.038731 -18.740196 0.57474893 4.024941
        -19.380243 0.61833245 3.9937103 -20.049807 0.6664441 3.9425523
        -20.751158 0.71976936 3.8687105 -21.486723 0.7791231 3.7691336
        -22.259111 0.8454821 3.6404333 -23.071136 0.9200256 3.478857
        -23.925854 1.0041902 3.2801957 -24.826601 1.0997391 3.0397134
        -25.777039 1.2088525 2.7520287 -26.781208 1.3342464 2.4109595
        -27.843601 1.47933 2.0093262 -28.969234 1.6484079 1.5386814