# vtk DataFile Version 3.0
SM polar seed points transformed to GSW coordinates
ASCII
DATASET POLYDATA
POINTS      288 float
       0.792556       0.000000       1.273520
       0.767015       0.194114       1.274366
       0.692130       0.375000       1.276844
       0.573007       0.530330       1.280786
       0.417762       0.649519       1.285924
       0.236975       0.724444       1.291907
       0.042967       0.750000       1.298327
      -0.151041       0.724444       1.304748
      -0.331828       0.649519       1.310731
      -0.487073       0.530330       1.315868
      -0.606197       0.375000       1.319811
      -0.681081       0.194114       1.322289
      -0.706623      -0.000000       1.323134
      -0.681081      -0.194114       1.322289
      -0.606197      -0.375000       1.319811
      -0.487073      -0.530330       1.315868
      -0.331828      -0.649519       1.310731
      -0.151041      -0.724444       1.304748
       0.042967      -0.750000       1.298327
       0.236975      -0.724444       1.291907
       0.417761      -0.649519       1.285924
       0.573007      -0.530330       1.280786
       0.692130      -0.375000       1.276844
       0.767015      -0.194114       1.274366
       0.678546       0.000000       1.337750
       0.656957       0.164072       1.338465
       0.593662       0.316964       1.340559
       0.492974       0.448254       1.343891
       0.361756       0.548997       1.348234
       0.208948       0.612327       1.353291
       0.044965       0.633927       1.358718
      -0.119017       0.612327       1.364145
      -0.271825       0.548997       1.369202
      -0.403044       0.448254       1.373544
      -0.503731       0.316964       1.376876
      -0.567026       0.164073       1.378971
      -0.588615      -0.000000       1.379686
      -0.567026      -0.164073       1.378971
      -0.503731      -0.316964       1.376876
      -0.403044      -0.448254       1.373544
      -0.271825      -0.548997       1.369202
      -0.119017      -0.612327       1.364145
       0.044965      -0.633927       1.358718
       0.208948      -0.612327       1.353291
       0.361756      -0.548997       1.348234
       0.492974      -0.448254       1.343891
       0.593662      -0.316964       1.340559
       0.656957      -0.164073       1.338465
       0.559371       0.000000       1.391799
       0.541900       0.132782       1.392377
       0.490676       0.256515       1.394072
       0.409190       0.362767       1.396769
       0.302996       0.444297       1.400283
       0.179331       0.495549       1.404376
       0.046622       0.513030       1.408768
      -0.086088       0.495549       1.413160
      -0.209753       0.444297       1.417252
      -0.315947       0.362767       1.420767
      -0.397432       0.256515       1.423463
      -0.448656       0.132782       1.425158
      -0.466128      -0.000000       1.425737
      -0.448656      -0.132782       1.425158
      -0.397432      -0.256515       1.423463
      -0.315947      -0.362767       1.420767
      -0.209753      -0.444297       1.417252
      -0.086088      -0.495549       1.413160
       0.046622      -0.513030       1.408768
       0.179331      -0.495549       1.404376
       0.302996      -0.444297       1.400283
       0.409190      -0.362767       1.396769
       0.490676      -0.256515       1.394072
       0.541900      -0.132782       1.392377
       0.435939       0.000000       1.435255
       0.422718       0.100481       1.435693
       0.383955       0.194114       1.436975
       0.322292       0.274519       1.439016
       0.241931       0.336216       1.441676
       0.148349       0.375000       1.444772
       0.047923       0.388229       1.448096
      -0.052503       0.375000       1.451419
      -0.146085       0.336216       1.454517
      -0.226446       0.274519       1.457176
      -0.288109       0.194114       1.459217
      -0.326872       0.100481       1.460499
      -0.340093      -0.000000       1.460937
      -0.326872      -0.100481       1.460499
      -0.288109      -0.194114       1.459217
      -0.226446      -0.274519       1.457176
      -0.146085      -0.336216       1.454517
      -0.052503      -0.375000       1.451419
       0.047923      -0.388229       1.448096
       0.148349      -0.375000       1.444772
       0.241931      -0.336216       1.441676
       0.322292      -0.274519       1.439016
       0.383955      -0.194114       1.436975
       0.422718      -0.100481       1.435693
       0.309190       0.000000       1.467788
       0.300319       0.067415       1.468081
       0.274312       0.130236       1.468942
       0.232941       0.184182       1.470311
       0.179025       0.225576       1.472096
       0.116238       0.251597       1.474174
       0.048860       0.260472       1.476403
      -0.018518       0.251597       1.478633
      -0.081305       0.225576       1.480711
      -0.135221       0.184182       1.482495
      -0.176592       0.130236       1.483864
      -0.202599       0.067415       1.484725
      -0.211470      -0.000000       1.485019
      -0.202599      -0.067415       1.484725
      -0.176592      -0.130236       1.483864
      -0.135221      -0.184182       1.482495
      -0.081305      -0.225576       1.480711
      -0.018518      -0.251597       1.478633
       0.048860      -0.260472       1.476403
       0.116238      -0.251597       1.474174
       0.179025      -0.225576       1.472096
       0.232941      -0.184182       1.470311
       0.274312      -0.130236       1.468942
       0.300319      -0.067415       1.468081
       0.180087       0.000000       1.489150
       0.175635       0.033836       1.489298
       0.162582       0.065367       1.489730
       0.141817       0.092443       1.490417
       0.114756       0.113219       1.491312
       0.083243       0.126279       1.492355
       0.049425       0.130734       1.493474
       0.015607       0.126279       1.494594
      -0.015906       0.113219       1.495636
      -0.042967       0.092443       1.496532
      -0.063732       0.065367       1.497219
      -0.076785       0.033836       1.497651
      -0.081237      -0.000000       1.497799
      -0.076785      -0.033836       1.497651
      -0.063732      -0.065367       1.497219
      -0.042967      -0.092443       1.496532
      -0.015906      -0.113219       1.495636
       0.015607      -0.126279       1.494594
       0.049425      -0.130734       1.493474
       0.083243      -0.126279       1.492355
       0.114756      -0.113219       1.491312
       0.141817      -0.092443       1.490417
       0.162582      -0.065367       1.489730
       0.175635      -0.033836       1.489298
       0.706623       0.000000      -1.323134
       0.681081       0.194114      -1.322289
       0.606197       0.375000      -1.319811
       0.487073       0.530330      -1.315868
       0.331828       0.649519      -1.310731
       0.151041       0.724444      -1.304748
      -0.042967       0.750000      -1.298327
      -0.236975       0.724444      -1.291907
      -0.417762       0.649519      -1.285924
      -0.573007       0.530330      -1.280786
      -0.692130       0.375000      -1.276844
      -0.767015       0.194114      -1.274366
      -0.792556      -0.000000      -1.273520
      -0.767015      -0.194114      -1.274366
      -0.692130      -0.375000      -1.276844
      -0.573007      -0.530330      -1.280786
      -0.417761      -0.649519      -1.285924
      -0.236975      -0.724444      -1.291907
      -0.042967      -0.750000      -1.298327
       0.151041      -0.724444      -1.304748
       0.331828      -0.649519      -1.310731
       0.487073      -0.530330      -1.315868
       0.606197      -0.375000      -1.319811
       0.681081      -0.194114      -1.322289
       0.588615       0.000000      -1.379686
       0.567026       0.164072      -1.378971
       0.503731       0.316964      -1.376876
       0.403044       0.448254      -1.373544
       0.271825       0.548997      -1.369202
       0.119017       0.612327      -1.364145
      -0.044965       0.633927      -1.358718
      -0.208948       0.612327      -1.353291
      -0.361756       0.548997      -1.348234
      -0.492974       0.448254      -1.343891
      -0.593662       0.316964      -1.340559
      -0.656957       0.164073      -1.338465
      -0.678546      -0.000000      -1.337750
      -0.656957      -0.164073      -1.338465
      -0.593662      -0.316964      -1.340559
      -0.492974      -0.448254      -1.343891
      -0.361756      -0.548997      -1.348234
      -0.208948      -0.612327      -1.353291
      -0.044965      -0.633927      -1.358718
       0.119017      -0.612327      -1.364145
       0.271825      -0.548997      -1.369202
       0.403044      -0.448254      -1.373544
       0.503731      -0.316964      -1.376876
       0.567026      -0.164073      -1.378971
       0.466128       0.000000      -1.425737
       0.448656       0.132782      -1.425158
       0.397432       0.256515      -1.423463
       0.315947       0.362767      -1.420767
       0.209753       0.444297      -1.417252
       0.086088       0.495549      -1.413160
      -0.046622       0.513030      -1.408768
      -0.179331       0.495549      -1.404376
      -0.302996       0.444297      -1.400283
      -0.409190       0.362767      -1.396769
      -0.490676       0.256515      -1.394072
      -0.541900       0.132782      -1.392377
      -0.559371      -0.000000      -1.391799
      -0.541900      -0.132782      -1.392377
      -0.490676      -0.256515      -1.394072
      -0.409190      -0.362767      -1.396769
      -0.302996      -0.444297      -1.400283
      -0.179331      -0.495549      -1.404376
      -0.046622      -0.513030      -1.408768
       0.086088      -0.495549      -1.413160
       0.209753      -0.444297      -1.417252
       0.315947      -0.362767      -1.420767
       0.397432      -0.256515      -1.423463
       0.448656      -0.132782      -1.425158
       0.340093       0.000000      -1.460937
       0.326872       0.100481      -1.460499
       0.288109       0.194114      -1.459217
       0.226446       0.274519      -1.457176
       0.146085       0.336216      -1.454517
       0.052503       0.375000      -1.451419
      -0.047923       0.388229      -1.448096
      -0.148349       0.375000      -1.444772
      -0.241931       0.336216      -1.441676
      -0.322292       0.274519      -1.439016
      -0.383955       0.194114      -1.436975
      -0.422718       0.100481      -1.435693
      -0.435939      -0.000000      -1.435255
      -0.422718      -0.100481      -1.435693
      -0.383955      -0.194114      -1.436975
      -0.322292      -0.274519      -1.439016
      -0.241931      -0.336216      -1.441676
      -0.148349      -0.375000      -1.444772
      -0.047923      -0.388229      -1.448096
       0.052503      -0.375000      -1.451419
       0.146085      -0.336216      -1.454517
       0.226446      -0.274519      -1.457176
       0.288109      -0.194114      -1.459217
       0.326872      -0.100481      -1.460499
       0.211470       0.000000      -1.485019
       0.202599       0.067415      -1.484725
       0.176592       0.130236      -1.483864
       0.135221       0.184182      -1.482495
       0.081305       0.225576      -1.480711
       0.018518       0.251597      -1.478633
      -0.048860       0.260472      -1.476403
      -0.116238       0.251597      -1.474174
      -0.179025       0.225576      -1.472096
      -0.232941       0.184182      -1.470311
      -0.274312       0.130236      -1.468942
      -0.300319       0.067415      -1.468081
      -0.309190      -0.000000      -1.467788
      -0.300319      -0.067415      -1.468081
      -0.274312      -0.130236      -1.468942
      -0.232941      -0.184182      -1.470311
      -0.179025      -0.225576      -1.472096
      -0.116238      -0.251597      -1.474174
      -0.048860      -0.260472      -1.476403
       0.018518      -0.251597      -1.478633
       0.081305      -0.225576      -1.480711
       0.135221      -0.184182      -1.482495
       0.176592      -0.130236      -1.483864
       0.202599      -0.067415      -1.484725
       0.081237       0.000000      -1.497799
       0.076785       0.033836      -1.497651
       0.063732       0.065367      -1.497219
       0.042967       0.092443      -1.496532
       0.015906       0.113219      -1.495636
      -0.015607       0.126279      -1.494594
      -0.049425       0.130734      -1.493474
      -0.083243       0.126279      -1.492355
      -0.114756       0.113219      -1.491312
      -0.141817       0.092443      -1.490417
      -0.162582       0.065367      -1.489730
      -0.175635       0.033836      -1.489298
      -0.180087      -0.000000      -1.489150
      -0.175635      -0.033836      -1.489298
      -0.162582      -0.065367      -1.489730
      -0.141817      -0.092443      -1.490417
      -0.114756      -0.113219      -1.491312
      -0.083243      -0.126279      -1.492355
      -0.049425      -0.130734      -1.493474
      -0.015607      -0.126279      -1.494594
       0.015906      -0.113219      -1.495636
       0.042967      -0.092443      -1.496532
       0.063732      -0.065367      -1.497219
       0.076785      -0.033836      -1.497651
VERTICES      288     576
 1        0
 1        1
 1        2
 1        3
 1        4
 1        5
 1        6
 1        7
 1        8
 1        9
 1       10
 1       11
 1       12
 1       13
 1       14
 1       15
 1       16
 1       17
 1       18
 1       19
 1       20
 1       21
 1       22
 1       23
 1       24
 1       25
 1       26
 1       27
 1       28
 1       29
 1       30
 1       31
 1       32
 1       33
 1       34
 1       35
 1       36
 1       37
 1       38
 1       39
 1       40
 1       41
 1       42
 1       43
 1       44
 1       45
 1       46
 1       47
 1       48
 1       49
 1       50
 1       51
 1       52
 1       53
 1       54
 1       55
 1       56
 1       57
 1       58
 1       59
 1       60
 1       61
 1       62
 1       63
 1       64
 1       65
 1       66
 1       67
 1       68
 1       69
 1       70
 1       71
 1       72
 1       73
 1       74
 1       75
 1       76
 1       77
 1       78
 1       79
 1       80
 1       81
 1       82
 1       83
 1       84
 1       85
 1       86
 1       87
 1       88
 1       89
 1       90
 1       91
 1       92
 1       93
 1       94
 1       95
 1       96
 1       97
 1       98
 1       99
 1      100
 1      101
 1      102
 1      103
 1      104
 1      105
 1      106
 1      107
 1      108
 1      109
 1      110
 1      111
 1      112
 1      113
 1      114
 1      115
 1      116
 1      117
 1      118
 1      119
 1      120
 1      121
 1      122
 1      123
 1      124
 1      125
 1      126
 1      127
 1      128
 1      129
 1      130
 1      131
 1      132
 1      133
 1      134
 1      135
 1      136
 1      137
 1      138
 1      139
 1      140
 1      141
 1      142
 1      143
 1      144
 1      145
 1      146
 1      147
 1      148
 1      149
 1      150
 1      151
 1      152
 1      153
 1      154
 1      155
 1      156
 1      157
 1      158
 1      159
 1      160
 1      161
 1      162
 1      163
 1      164
 1      165
 1      166
 1      167
 1      168
 1      169
 1      170
 1      171
 1      172
 1      173
 1      174
 1      175
 1      176
 1      177
 1      178
 1      179
 1      180
 1      181
 1      182
 1      183
 1      184
 1      185
 1      186
 1      187
 1      188
 1      189
 1      190
 1      191
 1      192
 1      193
 1      194
 1      195
 1      196
 1      197
 1      198
 1      199
 1      200
 1      201
 1      202
 1      203
 1      204
 1      205
 1      206
 1      207
 1      208
 1      209
 1      210
 1      211
 1      212
 1      213
 1      214
 1      215
 1      216
 1      217
 1      218
 1      219
 1      220
 1      221
 1      222
 1      223
 1      224
 1      225
 1      226
 1      227
 1      228
 1      229
 1      230
 1      231
 1      232
 1      233
 1      234
 1      235
 1      236
 1      237
 1      238
 1      239
 1      240
 1      241
 1      242
 1      243
 1      244
 1      245
 1      246
 1      247
 1      248
 1      249
 1      250
 1      251
 1      252
 1      253
 1      254
 1      255
 1      256
 1      257
 1      258
 1      259
 1      260
 1      261
 1      262
 1      263
 1      264
 1      265
 1      266
 1      267
 1      268
 1      269
 1      270
 1      271
 1      272
 1      273
 1      274
 1      275
 1      276
 1      277
 1      278
 1      279
 1      280
 1      281
 1      282
 1      283
 1      284
 1      285
 1      286
 1      287
POINT_DATA      288
SCALARS hemisphere int 1
LOOKUP_TABLE default
 1
 1
 1
 1
 1
 1
 1
 1
 1
 1
 1
 1
 1
 1
 1
 1
 1
 1
 1
 1
 1
 1
 1
 1
 1
 1
 1
 1
 1
 1
 1
 1
 1
 1
 1
 1
 1
 1
 1
 1
 1
 1
 1
 1
 1
 1
 1
 1
 1
 1
 1
 1
 1
 1
 1
 1
 1
 1
 1
 1
 1
 1
 1
 1
 1
 1
 1
 1
 1
 1
 1
 1
 1
 1
 1
 1
 1
 1
 1
 1
 1
 1
 1
 1
 1
 1
 1
 1
 1
 1
 1
 1
 1
 1
 1
 1
 1
 1
 1
 1
 1
 1
 1
 1
 1
 1
 1
 1
 1
 1
 1
 1
 1
 1
 1
 1
 1
 1
 1
 1
 1
 1
 1
 1
 1
 1
 1
 1
 1
 1
 1
 1
 1
 1
 1
 1
 1
 1
 1
 1
 1
 1
 1
 1
-1
-1
-1
-1
-1
-1
-1
-1
-1
-1
-1
-1
-1
-1
-1
-1
-1
-1
-1
-1
-1
-1
-1
-1
-1
-1
-1
-1
-1
-1
-1
-1
-1
-1
-1
-1
-1
-1
-1
-1
-1
-1
-1
-1
-1
-1
-1
-1
-1
-1
-1
-1
-1
-1
-1
-1
-1
-1
-1
-1
-1
-1
-1
-1
-1
-1
-1
-1
-1
-1
-1
-1
-1
-1
-1
-1
-1
-1
-1
-1
-1
-1
-1
-1
-1
-1
-1
-1
-1
-1
-1
-1
-1
-1
-1
-1
-1
-1
-1
-1
-1
-1
-1
-1
-1
-1
-1
-1
-1
-1
-1
-1
-1
-1
-1
-1
-1
-1
-1
-1
-1
-1
-1
-1
-1
-1
-1
-1
-1
-1
-1
-1
-1
-1
-1
-1
-1
-1
-1
-1
-1
-1
-1
-1
