<?xml version="1.0"?>
<VTKFile type="StructuredGrid" version="0.1" byte_order="LittleEndian" header_type="UInt32" compressor="vtkZLibDataCompressor">
  <StructuredGrid WholeExtent="0 60 0 20 0 20">
  <Piece Extent="0 60 0 20 0 20">
    <PointData Vectors="B_total">
      <DataArray type="Float32" Name="B_total" NumberOfComponents="3" format="ascii" RangeMin="0" RangeMax="59668.66842229921">
        -9.117973 -1.1106904 3.2762563 -9.434659 -1.1416591 3.3605087
        -9.760867 -1.1743227 3.4453545 -10.096902 -1.2088859 3.530569
        -10.443111 -1.2455826 3.6159024 -10.799895 -1.2846786 3.7010744
        -11.167706 -1.3264755 3.7857711 -11.547059 -1.3713151 3.8696396
        -11.938546 -1.4195839 3.952281 -12.342834 -1.4717182 4.0332427
        -12.760677 -1.52821 4.1120086 -13.192922 -1.5896132 4.18799
        -13.640507 -1.6565496 4.2605104 -14.104476 -1.7297182 4.3287964
        -14.585967 -1.8099014 4.391959 -15.086216 -1.8979753 4.448983
        -15.606544 -1.9949194 4.4987073 -16.148355 -2.101828 4.539816
        -16.71311 -2.2199216 4.570824 -17.30231 -2.3505623 4.590069
        -17.917488 -2.49527 4.595705 -18.560158 -2.655742 4.5857015
        -19.2318 -2.833876 4.5578475 -19.933828 -3.031799 4.509758
        -20.667566 -3.251902 4.43888 -21.434185 -3.4968793 4.3424983
        -22.234692 -3.7697806 4.2177515 -23.069826 -4.0740633 4.061619
        -23.940004 -4.413662 3.8709402 -24.845161 -4.793052 3.6424265
        -25.784613 -5.217331 3.3727102 -26.756813 -5.6922884 3.058435
        -27.759134 -6.2244806 2.696413 -28.78758 -6.8212986 2.283869
        -29.83656 -7.4910054 1.818735 -30.89865 -8.242738 1.3000137
        -31.964409 -9.0864105 0.72811276 -33.022186 -10.032446 0.10514772
        -34.05786 -11.091216 -0.56485915 -35.054436 -12.27202 -1.2758255
        -35.991474 -13.581418 -2.0193532 -36.844517 -15.020749 -2.784158
        -37.584858 -16.582802 -3.554823 -38.18046 -18.247904 -4.3097334
        -38.599037 -19.980112 -5.0183897 -38.813965 -21.724602 -5.6388645
        -38.81318 -23.407879 -6.116747 -38.60969 -24.94218 -6.3870316
        -38.25091 -26.23471 -6.3798594 -37.823284 -27.200802 -6.029724
        -29.213951 -21.676506 -3.9881654 -0.09797853 -0.10714149 0.58854103
        -0.11271334 -0.13289452 0.5693321 -0.11894107 -0.16172886 0.5491686
        -0.11719561 -0.19080734 0.53013134 -0.10906839 -0.21778202 0.5137825
        -0.09666824 -0.24112988 0.50095844 -0.08211565 -0.26015186 0.4918368
        -0.06718731 -0.27483082 0.48608708 -0.05313158 -0.28561068 0.4831009
        -0.040696144 -0.2931466 0.48217925 -9.167372 -1.0378699 3.2826836
        -9.486499 -1.0665452 3.3658974 -9.815374 -1.096819 3.4495854
        -10.154336 -1.1288828 3.5335188 -10.503763 -1.1629542 3.6174426
        -10.864091 -1.1992812 3.701072 -11.235812 -1.2381452 3.7840886
        -11.619493 -1.2798653 3.8661335 -12.015774 -1.3248023 3.9468002
        -12.425378 -1.373364 4.0256286 -12.849127 -1.4260113 4.1020913
        -13.287939 -1.4832634 4.1755857 -13.742838 -1.5457054 4.245419
        -14.214954 -1.6139953 4.3107934 -14.705528 -1.6888726 4.370793
        -15.215909 -1.7711678 4.424365 -15.747546 -1.8618125 4.470305
        -16.30198 -1.9618517 4.5072412 -16.880827 -2.072457 4.5336194
        -17.485771 -2.1949427 4.5476937 -18.118532 -2.3307834 4.547518
        -18.780846 -2.4816375 4.5309405 -19.474442 -2.649373 4.495605
        -20.201027 -2.836102 4.438952 -20.96224 -3.044218 4.3582153
        -21.759634 -3.2764502 4.2504263 -22.594646 -3.5359178 4.1124067
        -23.468525 -3.826205 3.9407535 -24.382256 -4.151443 3.7318287
        -25.336435 -4.5164037 3.4817548 -26.331118 -4.926611 3.1864367
        -27.365582 -5.3884583 2.8416243 -28.438105 -5.909345 2.443039
        -29.545666 -6.497814 1.9865639 -30.68368 -7.163689 1.4684958
        -31.845701 -7.918186 0.8858181 -33.02312 -8.77394 0.23645318
        -34.20472 -9.744847 -0.48055553 -35.376022 -10.845565 -1.264925
        -36.518295 -12.090459 -2.1149642 -37.60714 -13.491679 -3.0271285
        -38.610874 -15.05611 -3.9948647 -39.489338 -16.781034 -5.006257
        -40.19423 -18.648659 -6.0402584 -40.672623 -20.620317 -7.061762
        -40.875 -22.631817 -8.016741 -40.768185 -24.592207 -8.829662
        -40.35157 -26.388332 -9.405586 -39.6724 -27.89672 -9.638872
        -38.834248 -29.002066 -9.428043 -37.993324 -29.618252 -8.693647
        -32.331734 -25.717804 -6.3115015 -0.14389992 -0.1091938 0.61727905
        -0.15181017 -0.14509583 0.5869255 -0.1486392 -0.18085766 0.5580611
        -0.13685751 -0.21338272 0.53322315 -0.11962223 -0.2408247 0.51369286
        -0.099980354 -0.26249504 0.4996841 -0.08035231 -0.27861023 0.4906354
        -0.0623374 -0.28993177 0.48558187 -0.04678297 -0.29743052 0.48346555
        -9.214801 -0.9619467 3.2898493 -9.536248 -0.9880556 3.3721457
        -9.867657 -1.015643 3.4548066 -10.209387 -1.0448846 3.5375993
        -10.561852 -1.0759801 3.6202643 -10.925519 -1.109157 3.7025123
        -11.30092 -1.1446733 3.7840195 -11.688664 -1.182822 3.8644204
        -12.089437 -1.2239345 3.9433026 -12.504023 -1.2683862 4.020196
        -12.933297 -1.3166016 4.0945635 -13.378251 -1.3690597 4.165787
        -13.839981 -1.4263011 4.233157 -14.319709 -1.4889358 4.2958527
        -14.818769 -1.5576508 4.3529296 -15.338618 -1.6332197 4.403299
        -15.88083 -1.7165138 4.445711 -16.447077 -1.8085136 4.478739
        -17.039135 -1.9103235 4.5007606 -17.658855 -2.023188 4.509947
        -18.308155 -2.148512 4.504251 -18.988995 -2.287884 4.4814024
        -19.70336 -2.4431064 4.438896 -20.45325 -2.616232 4.3739963
        -21.240648 -2.809609 4.283722 -22.067524 -3.0259352 4.1648464
        -22.935772 -3.2683299 4.013863 -23.847202 -3.5404153 3.826969
        -24.803452 -3.8464162 3.6000216 -25.805885 -4.1912813 3.3285182
        -26.85544 -4.580822 3.0075734 -27.952433 -5.021881 2.6319566
        -29.096308 -5.522525 2.1961496 -30.285395 -6.0922728 1.6944867
        -31.516594 -6.7423396 1.1213045 -32.785065 -7.485884 0.47108322
        -34.083794 -8.3382 -0.2614578 -35.40291 -9.316735 -1.0813782
        -36.72855 -10.440749 -1.9935904 -38.04117 -11.73033 -3.0027695
        -39.312954 -13.204359 -4.112763 -40.504818 -14.876984 -5.324785
        -41.56359 -16.752254 -6.633696 -42.421196 -18.81691 -8.021849
        -42.998104 -21.032059 -9.450895 -43.213554 -23.325588 -10.853212
        -43.003647 -25.58841 -12.1263 -42.34572 -27.678486 -13.134451
        -41.282738 -29.435413 -13.721237 -39.938637 -30.705559 -13.733009
        -38.514874 -31.37244 -13.048543 -37.26466 -31.382776 -11.604971
        -23.587563 -19.882715 -5.8307323 -0.19181919 -0.13687706 0.637187
        -0.18618488 -0.17914009 0.59460926 -0.16919613 -0.21661758 0.5581155
        -0.14548302 -0.24723148 0.52957916 -0.1193409 -0.27043724 0.509212
        -0.09395695 -0.28686523 0.4960003 -0.07130146 -0.2976961 0.48843384
        -0.052260876 -0.30427694 0.4849254 -9.25934 -0.8833575 3.297665
        -9.582943 -0.9066597 3.3791716 -9.916699 -0.9312994 3.460945
        -10.260995 -0.9574344 3.5427475 -10.616268 -0.98524445 3.6243155
        -10.983017 -1.0149338 3.7053554 -11.36181 -1.0467349 3.785538
        -11.753291 -1.0809113 3.864493 -12.158195 -1.1177614 3.9417996
        -12.577352 -1.1576241 4.0169797 -13.011695 -1.2008824 4.089485
        -13.462278 -1.2479696 4.1586847 -13.930271 -1.2993759 4.223851
        -14.416972 -1.3556547 4.2841415 -14.923809 -1.4174315 4.3385844
        -15.45234 -1.4854125 4.3860555 -16.00425 -1.5603951 4.425263
        -16.581347 -1.6432804 4.454725 -17.18555 -1.7350868 4.472754
        -17.818876 -1.8369673 4.477443 -18.483435 -1.9502294 4.466647
        -19.181406 -2.076361 4.4379764 -19.915033 -2.2170596 4.388787
        -20.68661 -2.374272 4.316168 -21.498472 -2.5502434 4.216928
        -22.353006 -2.7475722 4.0875797 -23.252605 -2.9692922 3.924293
        -24.199669 -3.2189598 3.7228565 -25.196547 -3.5007699 3.4786177
        -26.245445 -3.8196926 3.1864216 -27.348316 -4.181646 2.840561
        -28.506668 -4.5936995 2.4347491 -29.721386 -5.064333 1.9621279
        -30.99247 -5.603739 1.4152973 -32.318806 -6.224187 0.78633887
        -33.697803 -6.9404182 0.0667758 -35.124878 -7.7700305 -0.75259495
        -36.592537 -8.7337265 -1.6820164 -38.08882 -9.8552265 -2.7331755
        -39.594627 -11.160492 -3.9193707 -41.0799 -12.675757 -5.254892
        -42.49861 -14.42374 -6.7526064 -43.783756 -16.417416 -8.418619
        -44.84438 -18.651026 -10.24313 -45.568127 -21.08886 -12.187559
        -45.83333 -23.653885 -14.170297 -45.53333 -26.220299 -16.055761
        -44.61175 -28.615643 -17.654043 -43.100677 -30.637846 -18.737846
        -41.14705 -32.0881 -19.078558 -39.011307 -32.813213 -18.494251
        -37.03034 -32.74324 -16.893236 -35.55323 -31.909008 -14.294697
        -2.8904457 -2.4640217 -0.18248749 -0.22873306 -0.19188118 0.63859653
        -0.20461464 -0.23218727 0.587059 -0.17263222 -0.26365852 0.5473137
        -0.138587 -0.28620625 0.51928425 -0.10657024 -0.3009882 0.50131226
        -0.078829765 -0.30972672 0.49103403 -0.056185722 -0.31414175 0.48613024
        -9.300059 -0.80247974 3.3058345 -9.625616 -0.8227678 3.3866804
        -9.961495 -0.84423375 3.4677064 -10.308105 -0.867016 3.548672
        -10.66591 -0.89127237 3.629309 -11.035434 -0.91718197 3.70932
        -11.417274 -0.9449487 3.7883708 -11.812113 -0.974804 3.8660855
        -12.220722 -1.0070105 3.942037 -12.643976 -1.0418662 4.0157394
        -13.082863 -1.0797083 4.086634 -13.538487 -1.1209195 4.154077
        -14.012087 -1.1659328 4.2173247 -14.505032 -1.2152382 4.2755146
        -15.018832 -1.2693908 4.3276486 -15.555139 -1.3290188 4.37257
        -16.115744 -1.3948336 4.408947 -16.702572 -1.4676411 4.435249
        -17.317682 -1.5483562 4.4497266 -17.963247 -1.6380183 4.4503975
        -18.641558 -1.7378116 4.4350276 -19.355001 -1.8490896 4.4011173
        -20.106068 -1.9734064 4.345887 -20.897345 -2.112554 4.266266
        -21.731506 -2.2686136 4.1588564 -22.61136 -2.444011 4.019924
        -23.539797 -2.6416013 3.845324 -24.519823 -2.8647614 3.6304495
        -25.554522 -3.117511 3.3701406 -26.646992 -3.4046664 3.0585966
        -27.800266 -3.7320256 2.6892738 -29.017187 -4.1066113 2.2548087
        -30.300247 -4.536969 1.7469329 -31.651428 -5.0335445 1.1563938
        -33.071995 -5.6091433 0.47279716 -34.562195 -6.2794757 -0.31567264
        -36.120693 -7.063727 -1.222757 -37.74349 -7.9850745 -2.264885
        -39.42184 -9.070906 -3.4620528 -41.138763 -10.352389 -4.838486
        -42.863586 -11.862787 -6.4222145 -44.544678 -13.633698 -8.24222
        -46.101368 -15.688314 -10.321429 -47.417725 -18.03093 -12.663909
        -48.342934 -20.63287 -15.235944 -48.70441 -23.416836 -17.943424
        -48.338863 -26.244564 -20.612324 -47.14167 -28.915688 -22.983543
        -45.1243 -31.185932 -24.734182 -42.458115 -32.808258 -25.531017
        -39.477806 -33.589035 -25.106018 -36.62976 -33.43995 -23.32729
        -34.377045 -32.402626 -20.233238 -33.097454 -30.633884 -16.012995
        -0.2731905 -0.22638893 0.68562126 -0.23987103 -0.26517105 0.6163101
        -0.19798374 -0.29340744 0.56391144 -0.15507793 -0.3117218 0.5277815
        -0.11604118 -0.32200527 0.50509024 -0.08328819 -0.3264761 0.49240065
        -0.057362556 -0.32715988 0.48646045 -9.336087 -0.7196489 3.3139355
        -9.663357 -0.73674726 3.394245 -10.001097 -0.7548483 3.4746609
        -10.349732 -0.7740695 3.5549395 -10.709748 -0.7945449 3.6348097
        -11.081694 -0.8164268 3.71397 -11.466192 -0.8398885 3.7920818
        -11.863957 -0.86512697 3.8687649 -12.275794 -0.8923657 3.9435863
        -12.702616 -0.9218585 4.016052 -13.145452 -0.9538933 4.0855947
        -13.605462 -0.9887968 4.1515603 -14.083937 -1.0269395 4.213189
        -14.582311 -1.0687413 4.2696004 -15.102167 -1.114679 4.319774
        -15.64524 -1.1652927 4.362525 -16.213413 -1.2211967 4.3964834
        -16.808722 -1.2830877 4.420076 -17.433346 -1.3517598 4.4314985
        -18.089602 -1.4281181 4.428702 -18.779942 -1.5131978 4.40937
        -19.506948 -1.6081873 4.370904 -20.273342 -1.7144576 4.310405
        -21.081978 -1.8335984 4.224649 -21.93586 -1.9674666 4.1100583
        -22.838184 -2.1182394 3.962665 -23.79233 -2.2884989 3.7780337
        -24.80189 -2.4813216 3.551184 -25.87067 -2.7003992 3.2764797
        -27.002666 -2.950196 2.9474995 -28.202017 -3.2361429 2.5568936
        -29.472935 -3.564891 2.0962348 -30.819632 -3.9446397 1.5558507
        -32.24623 -4.3855534 0.92459416 -33.756676 -4.9002943 0.18949628
        -35.354473 -5.5046663 -0.6648226 -37.042202 -6.2183604 -1.6570616
        -38.820286 -7.0656915 -2.8105612 -40.684517 -8.076153 -4.154866
        -42.62171 -9.284397 -5.727108 -44.602604 -10.729009 -7.5720954
        -46.571983 -12.449121 -9.739346 -48.436893 -14.477675 -12.274538
        -50.05594 -16.830076 -15.202724 -51.236 -19.487926 -18.50198
        -51.744774 -22.379349 -22.069662 -51.348633 -25.361404 -25.69019
        -49.8786 -28.214241 -29.02086 -47.313396 -30.658865 -31.61653
        -43.848 -32.40502 -33.005135 -39.906258 -33.221413 -32.80224
        -36.071102 -33.00257 -30.82187 -32.948143 -31.801218 -27.130953
        -31.019184 -29.808804 -22.017822 -16.741627 -14.962645 -8.303092
        -0.26954842 -0.31944084 0.63908577 -0.21688652 -0.33845043 0.5745611
        -0.16507149 -0.34776878 0.5313997 -0.11958981 -0.34998894 0.5052581
        -0.08268833 -0.34768105 0.4912448 -0.05443859 -0.3429432 0.48513532
        -9.36665 -0.63517797 3.3215008 -9.695359 -0.648942 3.4013903
        -10.034664 -0.66352063 3.4813266 -10.385002 -0.6790094 3.561062
        -10.746875 -0.6955169 3.6403234 -11.120852 -0.71316713 3.7188058
        -11.507581 -0.73210096 3.7961674 -11.907796 -0.7524786 3.8720233
        -12.322333 -0.774482 3.9459364 -12.752141 -0.79831815 4.0174065
        -13.198283 -0.8242219 4.085858 -13.661962 -0.8524601 4.1506267
        -14.144514 -0.88333577 4.210942 -14.64743 -0.917193 4.2659073
        -15.172355 -0.95442265 4.3144813 -15.721092 -0.99546945 4.355456
        -16.295607 -1.0408388 4.38743 -16.898024 -1.091107 4.408793
        -17.53063 -1.1469312 4.417694 -18.195868 -1.2090633 4.4120264
        -18.896332 -1.2783666 4.3894043 -19.634773 -1.3558353 4.347143
        -20.414112 -1.4426215 4.2822385 -21.237446 -1.540067 4.191338
        -22.108078 -1.6497477 4.070702 -23.029552 -1.7735201 3.91616
        -24.005695 -1.9136 3.7230172 -25.040636 -2.0726435 3.4859624
        -26.13886 -2.2538621 3.1989274 -27.305202 -2.461168 2.8549294
        -28.544859 -2.6993618 2.4458754 -29.863379 -2.97438 1.9623531
        -31.266672 -3.293618 1.393359 -32.761024 -3.6663547 0.7259298
        -34.35312 -4.1043015 -0.05543089 -36.049927 -4.6222916 -0.9696522
        -37.858288 -5.2391043 -2.040487 -39.783615 -5.978362 -3.2984629
        -41.827217 -6.8693333 -4.7832823 -43.981094 -7.947305 -6.54613
        -46.219345 -9.252897 -8.650639 -48.48557 -10.829325 -11.170193
        -50.676952 -12.716253 -14.178236 -52.628227 -14.938643 -17.72754
        -54.103027 -17.48956 -21.815546 -54.804245 -20.308092 -26.337242
        -54.41737 -23.257399 -31.03596 -52.694984 -26.113993 -35.475426
        -49.57043 -28.582912 -39.06523 -45.259037 -30.348923 -41.16249
        -40.284805 -31.156675 -41.23636 -35.389835 -30.889923 -39.033157
        -31.346142 -29.609934 -34.65785 -28.753408 -27.531944 -28.526129
        -27.914991 -24.952934 -21.214539 -0.28622437 -0.39514637 0.6457157
        -0.22345543 -0.39780045 0.57291603 -0.16423225 -0.39287376 0.526206
        -0.11418533 -0.3834219 0.49941063 -0.07503605 -0.37199593 0.4861889
        -0.0461483 -0.36039352 0.48137665 -9.391093 -0.549375 3.3280842
        -9.720951 -0.55969036 3.407662 -10.061498 -0.5706221 3.4872396
        -10.413187 -0.58224255 3.5665677 -10.776533 -0.5946344 3.6453705
        -11.152121 -0.60789156 3.7233405 -11.540615 -0.62212116 3.8001335
        -11.942772 -0.63744485 3.875361 -12.359449 -0.6540013 3.9485822
        -12.79162 -0.6719479 4.0192914 -13.24038 -0.6914637 4.086908
        -13.70696 -0.7127524 4.150759 -14.19274 -0.7360455 4.210064
        -14.699253 -0.7616062 4.2639146 -15.22819 -0.7897343 4.311254
        -15.781413 -0.82077086 4.3508534 -16.360954 -0.8551049 4.381289
        -16.96901 -0.89318055 4.400916 -17.607954 -0.9355056 4.4078503
        -18.280329 -0.98266286 4.399936 -18.988846 -1.0353229 4.374733
        -19.7364 -1.0942613 4.3294864 -20.526077 -1.1603793 4.2611065
        -21.361174 -1.2347329 4.1661325 -22.245243 -1.318561 4.040699
        -23.182133 -1.413339 3.880462 -24.176035 -1.5208304 3.6805134
        -25.231552 -1.6431627 3.4352636 -26.353748 -1.782922 3.1382842
        -27.548199 -1.9432799 2.7821107 -28.821033 -2.1281543 2.358019
        -30.178997 -2.342428 1.855739 -31.629541 -2.5922365 1.2630997
        -33.180946 -2.8853498 0.56551796 -34.84247 -3.2316778 -0.25478292
        -36.62439 -3.6439147 -1.2199961 -38.537697 -4.13834 -2.358592
        -40.592873 -4.735723 -3.707923 -42.796997 -5.46223 -5.317512
        -45.147976 -6.350038 -7.252428 -47.624615 -7.437128 -9.595335
        -50.1715 -8.765338 -12.444484 -52.67894 -10.375339 -15.903332
        -54.961315 -12.296759 -20.056396 -56.742107 -14.532252 -24.926428
        -57.660217 -17.035572 -30.41269 -57.31743 -19.68835 -36.222237
        -55.380653 -22.286022 -41.824055 -51.729034 -24.548822 -46.471943
        -46.592804 -26.170427 -49.33341 -40.598694 -26.899324 -49.71231
        -34.65751 -26.621344 -47.278465 -29.717522 -25.399834 -42.18209
        -26.499771 -23.450111 -34.98498 -25.342531 -21.064035 -26.450804
        -0.28189468 -0.48591518 0.6257229 -0.21180344 -0.4658699 0.5525837
        -0.14859772 -0.44246578 0.50852776 -0.09734154 -0.4187789 0.48555183
        -0.058877945 -0.39682484 0.4761839 -0.031686783 -0.37764883 0.4746256
        -9.408915 -0.46255597 3.3333082 -9.739603 -0.46933764 3.4126744
        -10.08105 -0.47652993 3.4920068 -10.433719 -0.48418146 3.5710547
        -10.798132 -0.4923477 3.649541 -11.174886 -0.50109196 3.7271562
        -11.56466 -0.51048625 3.803554 -11.968222 -0.5206126 3.8783443
        -12.386448 -0.5315646 3.951082 -12.820328 -0.5434484 4.0212593
        -13.27098 -0.55638504 4.08829 -13.739661 -0.5705124 4.151497
        -14.227777 -0.5859874 4.2100916 -14.736892 -0.6029888 4.263156
        -15.268735 -0.6217202 4.3096223 -15.825209 -0.6424141 4.348248
        -16.40839 -0.6653359 4.3775897 -17.020535 -0.69078946 4.3959827
        -17.66408 -0.71912277 4.401513 -18.34164 -0.75073665 4.3919926
        -19.056019 -0.78609335 4.3649383 -19.810213 -0.82572925 4.317546
        -20.607433 -0.87026966 4.24666 -21.451132 -0.92045015 4.1487446
        -22.34505 -0.9771364 4.019832 -23.293262 -1.041364 3.8554525
        -24.30025 -1.114376 3.6505375 -25.37098 -1.1976782 3.3992875
        -26.510967 -1.2931111 3.0949945 -27.726368 -1.402941 2.72983
        -29.024055 -1.5299851 2.2945747 -30.411734 -1.6777732 1.7782931
        -31.898094 -1.8507702 1.1678874 -33.493053 -2.0546677 0.44748813
        -35.208 -2.2967792 -0.40252924 -37.056 -2.5865488 -1.4070286
        -39.05159 -2.936194 -2.5983827 -41.209656 -3.3614593 -4.019674
        -43.54248 -3.8824062 -5.728779 -46.053555 -4.524048 -7.8027706
        -48.72662 -5.316415 -10.341078 -51.508484 -6.2933464 -13.464321
        -54.285515 -7.4889503 -17.303799 -56.856697 -8.930132 -21.974667
        -58.912506 -10.624042 -27.526104 -60.03669 -12.540144 -33.866264
        -59.755684 -14.590138 -40.674377 -57.656143 -16.614212 -47.33574
        -53.563023 -18.38757 -52.95957 -47.715557 -19.659369 -56.532497
        -40.832645 -20.221626 -57.198162 -33.980675 -19.980843 -54.552402
        -28.27016 -18.992113 -48.79118 -24.530828 -17.43584 -40.619846
        -23.127668 -15.552891 -30.981737 -13.586075 -7.882019 -11.419868
        -0.17814827 -0.5320535 0.5097103 -0.11605072 -0.48891258 0.47654343
        -0.068063736 -0.4507308 0.4629345 -0.033857346 -0.4185214 0.4609337
        -0.011069298 -0.39227223 0.46482038 -9.419749 -0.37505063 3.336892
        -9.750941 -0.3782423 3.4161386 -10.092934 -0.38163394 3.4953325
        -10.446195 -0.38524988 3.574221 -10.811254 -0.389118 3.6525257
        -11.188713 -0.3932701 3.729937 -11.57926 -0.39774254 3.806107
        -11.983672 -0.4025767 3.8806436 -12.402835 -0.40782 3.9531012
        -12.837749 -0.4135262 4.0229683 -13.289547 -0.419757 4.0896573
        -13.759501 -0.4265826 4.152487 -14.249031 -0.43408316 4.210664
        -14.759722 -0.44235027 4.263265 -15.293325 -0.45148852 4.3092165
        -15.85177 -0.46161783 4.3472657 -16.437162 -0.47287542 4.375959
        -17.05179 -0.48541883 4.3936176 -17.698135 -0.49942955 4.3983107
        -18.378853 -0.515117 4.38783 -19.096802 -0.53272396 4.359665
        -19.85505 -0.5525334 4.3109813 -20.656883 -0.5748768 4.238585
        -21.505852 -0.60014623 4.1388874 -22.405817 -0.6288041 4.0078626
        -23.361 -0.6614075 3.8409605 -24.37607 -0.6986281 3.6330104
        -25.45622 -0.7412834 3.378078 -26.607271 -0.7903767 3.069281
        -27.83575 -0.84714997 2.698554 -29.149023 -0.91315323 2.2563596
        -30.555422 -0.99033725 1.7313248 -32.06448 -1.0811794 1.1097531
        -33.6872 -1.1888506 0.37491107 -35.436424 -1.317441 -0.49404776
        -37.327114 -1.472252 -1.5237887 -39.376263 -1.6601686 -2.749332
        -41.601845 -1.8901005 -4.217679 -44.019863 -2.173458 -5.992486
        -46.637886 -2.5245476 -8.159194 -49.443504 -2.9606702 -10.829081
        -52.385723 -3.5015008 -14.138807 -55.349037 -4.1671567 -18.239988
        -58.122787 -4.973976 -23.270756 -60.375282 -5.9273205 -29.301043
        -61.651817 -7.0111313 -36.247868 -61.424812 -8.175916 -43.772804
        -59.22186 -9.330021 -51.201923 -54.826405 -10.342516 -57.53827
        -48.48203 -11.065714 -61.63295 -40.973892 -11.376855 -62.508537
        -33.482433 -11.222541 -59.705376 -27.236576 -10.638223 -53.45562
        -23.14373 -9.73147 -44.574417 -21.585117 -8.64496 -34.140438
        -22.133545 -7.4179564 -22.826153 -0.12302208 -0.58266735 0.44574356
        -0.06773567 -0.5229676 0.4317646 -0.027711868 -0.47318578 0.43281937
        -0.0012741089 -0.4331454 0.44138622 0.014600754 -0.4017328 0.45258665
        -9.423382 -0.28720182 3.3386621 -9.754742 -0.2867757 3.417879
        -10.096915 -0.2863364 3.497036 -10.450373 -0.28588378 3.575881
        -10.815647 -0.28541782 3.6541357 -11.193342 -0.28493857 3.7314892
        -11.584147 -0.28444624 3.8075936 -11.988843 -0.28394124 3.8820562
        -12.408319 -0.2834241 3.954431 -12.843579 -0.2828959 4.0242057
        -13.295762 -0.2823578 4.090792 -13.766142 -0.28181165 4.1535063
        -14.256147 -0.28125975 4.211555 -14.767369 -0.28070518 4.264014
        -15.301568 -0.28015202 4.309804 -15.860679 -0.27960533 4.3476715
        -16.44682 -0.27907187 4.376158 -17.062294 -0.27855992 4.3935814
        -17.70959 -0.27808034 4.3980026 -18.391386 -0.27764678 4.3872075
        -19.110563 -0.27727646 4.358678 -19.870209 -0.27699143 4.3095646
        -20.673641 -0.2768194 4.2366614 -21.524445 -0.2767968 4.136362
        -22.426525 -0.27696627 4.004619 -23.384161 -0.2773855 3.8368504
        -24.402096 -0.27812687 3.6278486 -25.485611 -0.279282 3.3716292
        -26.64064 -0.28096813 3.0612428 -27.873861 -0.28333414 2.688534
        -29.19283 -0.28657076 2.2438428 -30.606134 -0.29092056 1.7156258
        -32.123634 -0.29669398 1.0899476 -33.75678 -0.3042859 0.34973842
        -35.518993 -0.3141992 -0.5263448 -37.425995 -0.3270709 -1.5656832
        -39.49577 -0.3437027 -2.8043687 -41.74755 -0.36508974 -4.2909846
        -44.19885 -0.39244828 -6.0915194 -46.858913 -0.42721018 -8.294819
        -49.716938 -0.47096944 -11.016975 -52.722893 -0.5253186 -14.401205
        -55.76064 -0.5915637 -18.607456 -58.615707 -0.67018926 -23.78334
        -60.947575 -0.7602294 -30.007442 -62.285957 -0.8585669 -37.200603
        -62.08127 -0.9593586 -45.017307 -59.837006 -1.0537109 -52.75931
        -55.319656 -1.1300488 -59.38561 -48.77478 -1.1760261 -63.69115
        -41.014805 -1.1825749 -64.64852 -33.266903 -1.1489719 -61.776
        -26.80913 -1.0825894 -55.32213 -22.58003 -0.99229753 -46.14884
        -20.965845 -0.890767 -35.39106 -21.831789 -0.7894188 -24.094639
        -0.052326202 -0.6052216 0.3686409 -0.008655548 -0.5365461 0.37961006
        0.019796371 -0.4810316 0.39867687 0.03590393 -0.4374947 0.41969967
        0.04316902 -0.40403622 0.43922758 -9.419743 -0.19936033 3.3385608
        -9.750931 -0.19531679 3.4178345 -10.092919 -0.191047 3.4970558
        -10.446176 -0.18652631 3.5759723 -10.811232 -0.18172677 3.654306
        -11.188688 -0.17661665 3.731746 -11.579232 -0.17116004 3.8079457
        -11.983642 -0.16531622 3.8825126 -12.402802 -0.15903924 3.9550006
        -12.837717 -0.15227689 4.024899 -13.289516 -0.14497021 4.0916195
        -13.759474 -0.13705252 4.15448 -14.24901 -0.12844822 4.2126884
        -14.75971 -0.11907186 4.2653213 -15.293328 -0.10882676 4.3113036
        -15.851792 -0.09760331 4.349382 -16.437212 -0.08527735 4.3781037
        -17.051878 -0.071708016 4.3957887 -17.69827 -0.056735076 4.400505
        -18.379053 -0.04017606 4.3900437 -19.097094 -0.021822404 4.3618937
        -19.855453 -0.0014344249 4.313216 -20.657436 0.021264544 4.2408156
        -21.5066 0.04659503 4.1411 -22.40682 0.074935295 4.0100384
        -23.362333 0.10672913 3.843073 -24.377834 0.14250666 3.6350226
        -25.45855 0.18290523 3.3799386 -26.61034 0.22869954 3.070918
        -27.839787 0.28084043 2.6998663 -29.154327 0.34050757 2.2572045
        -30.562399 0.40918028 1.7314978 -32.073654 0.4887362 1.1089596
        -33.699276 0.58158505 0.37272888 -35.452328 0.6908526 -0.4982376
        -37.34806 0.82062566 -1.5308837 -39.403824 0.9762704 -2.7606478
        -41.63806 1.1648235 -4.2351365 -44.06727 1.3954315 -6.018875
        -46.69958 1.679766 -8.198551 -49.523045 2.0322433 -10.887134
        -52.486824 2.4697337 -14.223516 -55.474945 3.0101895 -18.362019
        -58.275043 3.6694174 -23.443653 -60.552002 4.45502 -29.540573
        -61.845497 5.3571377 -36.57006 -61.62067 6.3373146 -44.19002
        -59.397953 7.320136 -51.717274 -54.956863 8.19527 -58.139915
        -48.543526 8.8365755 -62.291492 -40.953144 9.136694 -63.18052
        -33.38132 9.043276 -60.343174 -27.073212 8.579792 -54.019615
        -22.94507 7.836963 -45.04143 -21.377575 6.9354706 -34.50522
        -21.93771 5.897095 -23.096645 0.023683548 -0.59328365 0.2912712
        0.05334282 -0.525692 0.3282032 0.06867218 -0.47186637 0.36553192
        0.07355881 -0.43012547 0.39888763 0.07175255 -0.39830732 0.42650652
        -9.408901 -0.11187684 3.3366446 -9.739582 -0.1042446 3.4160643
        -10.081022 -0.09617554 3.4954512 -10.433682 -0.08762066 3.5745554
        -10.798089 -0.07852438 3.6530986 -11.174836 -0.06882355 3.730772
        -11.564604 -0.05844648 3.8072295 -11.968161 -0.047311872 3.8820798
        -12.386383 -0.035327505 3.9548788 -12.820263 -0.022388808 4.025118
        -13.270918 -0.008377203 4.0922117 -13.739606 0.006841694 4.155481
        -14.227734 0.02342026 4.214138 -14.736866 0.0415313 4.267265
        -15.268737 0.061370846 4.3137927 -15.825251 0.08316136 4.3524776
        -16.408485 0.10715564 4.3818765 -17.020704 0.13364121 4.4003224
        -17.664349 0.16294585 4.4059 -18.342037 0.19544409 4.396419
        -19.056585 0.23156542 4.369394 -19.811005 0.2718045 4.3220153
        -20.608519 0.31673443 4.2511244 -21.452597 0.36702234 4.153174
        -22.347012 0.42345372 4.02419 -23.295868 0.48695695 3.8596873
        -24.303701 0.5586414 3.6545773 -25.37553 0.63984406 3.4030328
        -26.516956 0.7321914 3.0983062 -27.734238 0.83768034 2.7325127
        -29.03439 0.95878714 2.2963524 -30.4253 1.0986118 1.77877
        -31.915915 1.2610774 1.1665035 -33.51646 1.4511979 0.4434272
        -35.238758 1.6754389 -0.41044104 -37.096397 1.9421958 -1.4204996
        -39.104607 2.262403 -2.6198957 -41.279076 2.6502614 -4.0528374
        -43.63302 3.1240277 -5.7788143 -46.170887 3.7067044 -7.877159
        -48.877182 4.4262543 -10.450377 -51.69889 5.3147225 -13.623072
        -54.52129 6.405201 -17.531284 -57.140118 7.7251577 -22.295094
        -59.239395 9.2846775 -27.967321 -60.392666 11.059177 -34.456062
        -60.11338 12.969519 -41.433514 -57.975723 14.86796 -48.268333
        -53.7981 16.543678 -54.043526 -47.824768 17.759424 -57.715496
        -40.793 18.316145 -58.403946 -33.796707 18.12063 -55.69777
        -27.973478 17.220524 -49.806683 -24.168556 15.784512 -41.464092
        -22.747128 14.039186 -31.644598 -13.246597 6.586716 -11.875113
        0.09350395 -0.54919004 0.22730446 0.10963058 -0.49214125 0.28608513
        0.11272812 -0.44691133 0.338521 0.10736847 -0.41186047 0.3819828
        0.097379684 -0.38508487 0.416193 -9.391075 -0.025094178 3.3330846
        -9.720921 -0.013930395 3.4127429 -10.061456 -0.0021241084 3.4924026
        -10.413133 0.010397406 3.5718143 -10.776467 0.023716867 3.6507027
        -11.152045 0.03792822 3.7287598 -11.540531 0.053138148 3.8056414
        -11.942681 0.06946775 3.8809593 -12.359354 0.08705443 3.9542718
        -12.791523 0.10605398 4.0250735 -13.240286 0.12664309 4.092784
        -13.706876 0.14902218 4.1567287 -14.192673 0.17341843 4.216128
        -14.699211 0.20008947 4.2700715 -15.228189 0.22932765 4.317503
        -15.781468 0.26146472 4.357192 -16.361088 0.29687768 4.3877125
        -16.96925 0.3359952 4.40742 -17.608335 0.37930593 4.414426
        -18.2809 0.42736804 4.406572 -18.989666 0.48082134 4.3814135
        -19.737543 0.54040265 4.33619 -20.527645 0.60696447 4.2678046
        -21.363295 0.68149924 4.1727843 -22.248083 0.7651729 4.047251
        -23.185907 0.8593623 3.886839 -24.181025 0.96571016 3.6866124
        -25.238123 1.0861917 3.4409423 -26.362381 1.2232034 3.143344
        -27.55952 1.3796797 2.7862754 -28.835873 1.5592428 2.360896