# vtk DataFile Version 3.0
T01 + IGRF magnetic field in GSW coordinates
ASCII
DATASET STRUCTURED_GRID
DIMENSIONS     61    21    21
POINTS    26901 float
     -50.000000     -10.000000     -10.000000
     -49.000000     -10.000000     -10.000000
     -48.000000     -10.000000     -10.000000
     -47.000000     -10.000000     -10.000000
     -46.000000     -10.000000     -10.000000
     -45.000000     -10.000000     -10.000000
     -44.000000     -10.000000     -10.000000
     -43.000000     -10.000000     -10.000000
     -42.000000     -10.000000     -10.000000
     -41.000000     -10.000000     -10.000000
     -40.000000     -10.000000     -10.000000
     -39.000000     -10.000000     -10.000000
     -38.000000     -10.000000     -10.000000
     -37.000000     -10.000000     -10.000000
     -36.000000     -10.000000     -10.000000
     -35.000000     -10.000000     -10.000000
     -34.000000     -10.000000     -10.000000
     -33.000000     -10.000000     -10.000000
     -32.000000     -10.000000     -10.000000
     -31.000000     -10.000000     -10.000000
     -30.000000     -10.000000     -10.000000
     -29.000000     -10.000000     -10.000000
     -28.000000     -10.000000     -10.000000
     -27.000000     -10.000000     -10.000000
     -26.000000     -10.000000     -10.000000
     -25.000000     -10.000000     -10.000000
     -24.000000     -10.000000     -10.000000
     -23.000000     -10.000000     -10.000000
     -22.000000     -10.000000     -10.000000
     -21.000000     -10.000000     -10.000000
     -20.000000     -10.000000     -10.000000
     -19.000000     -10.000000     -10.000000
     -18.000000     -10.000000     -10.000000
     -17.000000     -10.000000     -10.000000
     -16.000000     -10.000000     -10.000000
     -15.000000     -10.000000     -10.000000
     -14.000000     -10.000000     -10.000000
     -13.000000     -10.000000     -10.000000
     -12.000000     -10.000000     -10.000000
     -11.000000     -10.000000     -10.000000
     -10.000000     -10.000000     -10.000000
      -9.000000     -10.000000     -10.000000
      -8.000000     -10.000000     -10.000000
      -7.000000     -10.000000     -10.000000
      -6.000000     -10.000000     -10.000000
      -5.000000     -10.000000     -10.000000
      -4.000000     -10.000000     -10.000000
      -3.000000     -10.000000     -10.000000
      -2.000000     -10.000000     -10.000000
      -1.000000     -10.000000     -10.000000
       0.000000     -10.000000     -10.000000
       1.000000     -10.000000     -10.000000
       2.000000     -10.000000     -10.000000
       3.000000     -10.000000     -10.000000
       4.000000     -10.000000     -10.000000
       5.000000     -10.000000     -10.000000
       6.000000     -10.000000     -10.000000
       7.000000     -10.000000     -10.000000
       8.000000     -10.000000     -10.000000
       9.000000     -10.000000     -10.000000
      10.000000     -10.000000     -10.000000
     -50.000000      -9.000000     -10.000000
     -49.000000      -9.000000     -10.000000
     -48.000000      -9.000000     -10.000000
     -47.000000      -9.000000     -10.000000
     -46.000000      -9.000000     -10.000000
     -45.000000      -9.000000     -10.000000
     -44.000000      -9.000000     -10.000000
     -43.000000      -9.000000     -10.000000
     -42.000000      -9.000000     -10.000000
     -41.000000      -9.000000     -10.000000
     -40.000000      -9.000000     -10.000000
     -39.000000      -9.000000     -10.000000
     -38.000000      -9.000000     -10.000000
     -37.000000      -9.000000     -10.000000
     -36.000000      -9.000000     -10.000000
     -35.000000      -9.000000     -10.000000
     -34.000000      -9.000000     -10.000000
     -33.000000      -9.000000     -10.000000
     -32.000000      -9.000000     -10.000000
     -31.000000      -9.000000     -10.000000
     -30.000000      -9.000000     -10.000000
     -29.000000      -9.000000     -10.000000
     -28.000000      -9.000000     -10.000000
     -27.000000      -9.000000     -10.000000
     -26.000000      -9.000000     -10.000000
     -25.000000      -9.000000     -10.000000
     -24.000000      -9.000000     -10.000000
     -23.000000      -9.000000     -10.000000
     -22.000000      -9.000000     -10.000000
     -21.000000      -9.000000     -10.000000
     -20.000000      -9.000000     -10.000000
     -19.000000      -9.000000     -10.000000
     -18.000000      -9.000000     -10.000000
     -17.000000      -9.000000     -10.000000
     -16.000000      -9.000000     -10.000000
     -15.000000      -9.000000     -10.000000
     -14.000000      -9.000000     -10.000000
     -13.000000      -9.000000     -10.000000
     -12.000000      -9.000000     -10.000000
     -11.000000      -9.000000     -10.000000
     -10.000000      -9.000000     -10.000000
      -9.000000      -9.000000     -10.000000
      -8.000000      -9.000000     -10.000000
      -7.000000      -9.000000     -10.000000
      -6.000000      -9.000000     -10.000000
      -5.000000      -9.000000     -10.000000
      -4.000000      -9.000000     -10.000000
      -3.000000      -9.000000     -10.000000
      -2.000000      -9.000000     -10.000000
      -1.000000      -9.000000     -10.000000
       0.000000      -9.000000     -10.000000
       1.000000      -9.000000     -10.000000
       2.000000      -9.000000     -10.000000
       3.000000      -9.000000     -10.000000
       4.000000      -9.000000     -10.000000
       5.000000      -9.000000     -10.000000
       6.000000      -9.000000     -10.000000
       7.000000      -9.000000     -10.000000
       8.000000      -9.000000     -10.000000
       9.000000      -9.000000     -10.000000
      10.000000      -9.000000     -10.000000
     -50.000000      -8.000000     -10.000000
     -49.000000      -8.000000     -10.000000
     -48.000000      -8.000000     -10.000000
     -47.000000      -8.000000     -10.000000
     -46.000000      -8.000000     -10.000000
     -45.000000      -8.000000     -10.000000
     -44.000000      -8.000000     -10.000000
     -43.000000      -8.000000     -10.000000
     -42.000000      -8.000000     -10.000000
     -41.000000      -8.000000     -10.000000
     -40.000000      -8.000000     -10.000000
     -39.000000      -8.000000     -10.000000
     -38.000000      -8.000000     -10.000000
     -37.000000      -8.000000     -10.000000
     -36.000000      -8.000000     -10.000000
     -35.000000      -8.000000     -10.000000
     -34.000000      -8.000000     -10.000000
     -33.000000      -8.000000     -10.000000
     -32.000000      -8.000000     -10.000000
     -31.000000      -8.000000     -10.000000
     -30.000000      -8.000000     -10.000000
     -29.000000      -8.000000     -10.000000
     -28.000000      -8.000000     -10.000000
     -27.000000      -8.000000     -10.000000
     -26.000000      -8.000000     -10.000000
     -25.000000      -8.000000     -10.000000
     -24.000000      -8.000000     -10.000000
     -23.000000      -8.000000     -10.000000
     -22.000000      -8.000000     -10.000000
     -21.000000      -8.000000     -10.000000
     -20.000000      -8.000000     -10.000000
     -19.000000      -8.000000     -10.000000
     -18.000000      -8.000000     -10.000000
     -17.000000      -8.000000     -10.000000
     -16.000000      -8.000000     -10.000000
     -15.000000      -8.000000     -10.000000
     -14.000000      -8.000000     -10.000000
     -13.000000      -8.000000     -10.000000
     -12.000000      -8.000000     -10.000000
     -11.000000      -8.000000     -10.000000
     -10.000000      -8.000000     -10.000000
      -9.000000      -8.000000     -10.000000
      -8.000000      -8.000000     -10.000000
      -7.000000      -8.000000     -10.000000
      -6.000000      -8.000000     -10.000000
      -5.000000      -8.000000     -10.000000
      -4.000000      -8.000000     -10.000000
      -3.000000      -8.000000     -10.000000
      -2.000000      -8.000000     -10.000000
      -1.000000      -8.000000     -10.000000
       0.000000      -8.000000     -10.000000
       1.000000      -8.000000     -10.000000
       2.000000      -8.000000     -10.000000
       3.000000      -8.000000     -10.000000
       4.000000      -8.000000     -10.000000
       5.000000      -8.000000     -10.000000
       6.000000      -8.000000     -10.000000
       7.000000      -8.000000     -10.000000
       8.000000      -8.000000     -10.000000
       9.000000      -8.000000     -10.000000
      10.000000      -8.000000     -10.000000
     -50.000000      -7.000000     -10.000000
     -49.000000      -7.000000     -10.000000
     -48.000000      -7.000000     -10.000000
     -47.000000      -7.000000     -10.000000
     -46.000000      -7.000000     -10.000000
     -45.000000      -7.000000     -10.000000
     -44.000000      -7.000000     -10.000000
     -43.000000      -7.000000     -10.000000
     -42.000000      -7.000000     -10.000000
     -41.000000      -7.000000     -10.000000
     -40.000000      -7.000000     -10.000000
     -39.000000      -7.000000     -10.000000
     -38.000000      -7.000000     -10.000000
     -37.000000      -7.000000     -10.000000
     -36.000000      -7.000000     -10.000000
     -35.000000      -7.000000     -10.000000
     -34.000000      -7.000000     -10.000000
     -33.000000      -7.000000     -10.000000
     -32.000000      -7.000000     -10.000000
     -31.000000      -7.000000     -10.000000
     -30.000000      -7.000000     -10.000000
     -29.000000      -7.000000     -10.000000
     -28.000000      -7.000000     -10.000000
     -27.000000      -7.000000     -10.000000
     -26.000000      -7.000000     -10.000000
     -25.000000      -7.000000     -10.000000
[...]
POINT_DATA    26901
VECTORS B_total float
  -9.1179733E+00  -1.1106904E+00   3.2762563E+00
  -9.4346590E+00  -1.1416591E+00   3.3605087E+00
  -9.7608671E+00  -1.1743227E+00   3.4453545E+00
  -1.0096902E+01  -1.2088859E+00   3.5305691E+00
  -1.0443111E+01  -1.2455826E+00   3.6159024E+00
  -1.0799895E+01  -1.2846786E+00   3.7010744E+00
  -1.1167706E+01  -1.3264755E+00   3.7857711E+00
  -1.1547059E+01  -1.3713151E+00   3.8696396E+00
  -1.1938546E+01  -1.4195839E+00   3.9522810E+00
  -1.2342834E+01  -1.4717182E+00   4.0332427E+00
  -1.2760677E+01  -1.5282100E+00   4.1120086E+00
  -1.3192922E+01  -1.5896132E+00   4.1879902E+00
  -1.3640507E+01  -1.6565496E+00   4.2605104E+00
  -1.4104476E+01  -1.7297182E+00   4.3287964E+00
  -1.4585967E+01  -1.8099014E+00   4.3919592E+00
  -1.5086216E+01  -1.8979753E+00   4.4489832E+00
  -1.5606544E+01  -1.9949194E+00   4.4987073E+00
  -1.6148355E+01  -2.1018281E+00   4.5398159E+00
  -1.6713110E+01  -2.2199216E+00   4.5708241E+00
  -1.7302311E+01  -2.3505623E+00   4.5900688E+00
  -1.7917488E+01  -2.4952700E+00   4.5957050E+00
  -1.8560158E+01  -2.6557419E+00   4.5857015E+00
  -1.9231800E+01  -2.8338759E+00   4.5578475E+00
  -1.9933828E+01  -3.0317991E+00   4.5097580E+00
  -2.0667566E+01  -3.2519021E+00   4.4388800E+00
  -2.1434185E+01  -3.4968793E+00   4.3424983E+00
  -2.2234692E+01  -3.7697806E+00   4.2177515E+00
  -2.3069826E+01  -4.0740633E+00   4.0616188E+00
  -2.3940004E+01  -4.4136620E+00   3.8709402E+00
  -2.4845161E+01  -4.7930522E+00   3.6424265E+00
  -2.5784613E+01  -5.2173309E+00   3.3727102E+00
  -2.6756813E+01  -5.6922884E+00   3.0584350E+00
  -2.7759134E+01  -6.2244806E+00   2.6964130E+00
  -2.8787580E+01  -6.8212986E+00   2.2838690E+00
  -2.9836559E+01  -7.4910054E+00   1.8187350E+00
  -3.0898649E+01  -8.2427378E+00   1.3000137E+00
  -3.1964409E+01  -9.0864105E+00   7.2811276E-01
  -3.3022186E+01  -1.0032446E+01   1.0514772E-01
  -3.4057861E+01  -1.1091216E+01  -5.6485915E-01
  -3.5054436E+01  -1.2272020E+01  -1.2758255E+00
  -3.5991474E+01  -1.3581418E+01  -2.0193532E+00
  -3.6844517E+01  -1.5020749E+01  -2.7841580E+00
  -3.7584858E+01  -1.6582802E+01  -3.5548229E+00
  -3.8180462E+01  -1.8247904E+01  -4.3097334E+00
  -3.8599037E+01  -1.9980112E+01  -5.0183897E+00
  -3.8813965E+01  -2.1724602E+01  -5.6388645E+00
  -3.8813179E+01  -2.3407879E+01  -6.1167469E+00
  -3.8609692E+01  -2.4942181E+01  -6.3870316E+00
  -3.8250912E+01  -2.6234711E+01  -6.3798594E+00
  -3.7823284E+01  -2.7200802E+01  -6.0297241E+00
  -2.9213951E+01  -2.1676506E+01  -3.9881654E+00
  -9.7978532E-02  -1.0714149E-01   5.8854103E-01
  -1.1271334E-01  -1.3289452E-01   5.6933212E-01
  -1.1894107E-01  -1.6172886E-01   5.4916859E-01
  -1.1719561E-01  -1.9080734E-01   5.3013134E-01
  -1.0906839E-01  -2.1778202E-01   5.1378250E-01
  -9.6668243E-02  -2.4112988E-01   5.0095844E-01
  -8.2115650E-02  -2.6015186E-01   4.9183679E-01
  -6.7187309E-02  -2.7483082E-01   4.8608708E-01
  -5.3131580E-02  -2.8561068E-01   4.8310089E-01
  -4.0696144E-02  -2.9314661E-01   4.8217925E-01
  -9.1673717E+00  -1.0378699E+00   3.2826836E+00
  -9.4864988E+00  -1.0665452E+00   3.3658974E+00
  -9.8153744E+00  -1.0968190E+00   3.4495854E+00
  -1.0154336E+01  -1.1288828E+00   3.5335188E+00
  -1.0503763E+01  -1.1629542E+00   3.6174426E+00
  -1.0864091E+01  -1.1992812E+00   3.7010720E+00
  -1.1235812E+01  -1.2381452E+00   3.7840886E+00
  -1.1619493E+01  -1.2798653E+00   3.8661335E+00
  -1.2015774E+01  -1.3248023E+00   3.9468002E+00
  -1.2425378E+01  -1.3733640E+00   4.0256286E+00
  -1.2849127E+01  -1.4260113E+00   4.1020913E+00
  -1.3287939E+01  -1.4832634E+00   4.1755857E+00
  -1.3742838E+01  -1.5457054E+00   4.2454190E+00
  -1.4214954E+01  -1.6139953E+00   4.3107934E+00
  -1.4705528E+01  -1.6888726E+00   4.3707929E+00
  -1.5215909E+01  -1.7711678E+00   4.4243650E+00
  -1.5747546E+01  -1.8618125E+00   4.4703050E+00
  -1.6301979E+01  -1.9618517E+00   4.5072412E+00
  -1.6880827E+01  -2.0724571E+00   4.5336194E+00
  -1.7485771E+01  -2.1949427E+00   4.5476937E+00
  -1.8118532E+01  -2.3307834E+00   4.5475178E+00
  -1.8780846E+01  -2.4816375E+00   4.5309405E+00
  -1.9474442E+01  -2.6493731E+00   4.4956050E+00
  -2.0201027E+01  -2.8361020E+00   4.4389520E+00
  -2.0962240E+01  -3.0442181E+00   4.3582153E+00
  -2.1759634E+01  -3.2764502E+00   4.2504263E+00
  -2.2594646E+01  -3.5359178E+00   4.1124067E+00
  -2.3468525E+01  -3.8262050E+00   3.9407535E+00
  -2.4382256E+01  -4.1514430E+00   3.7318287E+00
  -2.5336435E+01  -4.5164037E+00   3.4817548E+00
  -2.6331118E+01  -4.9266109E+00   3.1864367E+00
  -2.7365582E+01  -5.3884583E+00   2.8416243E+00
  -2.8438105E+01  -5.9093451E+00   2.4430389E+00
  -2.9545666E+01  -6.4978142E+00   1.9865639E+00
  -3.0683680E+01  -7.1636891E+00   1.4684958E+00
  -3.1845701E+01  -7.9181862E+00   8.8581812E-01
  -3.3023121E+01  -8.7739401E+00   2.3645318E-01
  -3.4204720E+01  -9.7448473E+00  -4.8055553E-01
  -3.5376022E+01  -1.0845565E+01  -1.2649250E+00
  -3.6518295E+01  -1.2090459E+01  -2.1149642E+00
  -3.7607140E+01  -1.3491679E+01  -3.0271285E+00
  -3.8610874E+01  -1.5056110E+01  -3.9948647E+00
  -3.9489338E+01  -1.6781034E+01  -5.0062571E+00
  -4.0194229E+01  -1.8648659E+01  -6.0402584E+00
  -4.0672623E+01  -2.0620317E+01  -7.0617619E+00
  -4.0875000E+01  -2.2631817E+01  -8.0167408E+00
  -4.0768185E+01  -2.4592207E+01  -8.8296623E+00
  -4.0351570E+01  -2.6388332E+01  -9.4055862E+00
  -3.9672401E+01  -2.7896721E+01  -9.6388721E+00
  -3.8834248E+01  -2.9002066E+01  -9.4280434E+00
  -3.7993324E+01  -2.9618252E+01  -8.6936474E+00
  -3.2331734E+01  -2.5717804E+01  -6.3115015E+00
  -1.4389992E-01  -1.0919380E-01   6.1727905E-01
  -1.5181017E-01  -1.4509583E-01   5.8692551E-01
  -1.4863920E-01  -1.8085766E-01   5.5806112E-01
  -1.3685751E-01  -2.1338272E-01   5.3322315E-01
  -1.1962223E-01  -2.4082470E-01   5.1369286E-01
  -9.9980354E-02  -2.6249504E-01   4.9968410E-01
  -8.0352306E-02  -2.7861023E-01   4.9063540E-01
  -6.2337399E-02  -2.8993177E-01   4.8558187E-01
  -4.6782970E-02  -2.9743052E-01   4.8346555E-01
  -9.2148008E+00  -9.6194673E-01   3.2898493E+00
  -9.5362482E+00  -9.8805559E-01   3.3721457E+00
  -9.8676567E+00  -1.0156430E+00   3.4548066E+00
  -1.0209387E+01  -1.0448846E+00   3.5375993E+00
  -1.0561852E+01  -1.0759801E+00   3.6202643E+00
  -1.0925519E+01  -1.1091570E+00   3.7025123E+00
  -1.1300920E+01  -1.1446733E+00   3.7840195E+00
  -1.1688664E+01  -1.1828220E+00   3.8644204E+00
  -1.2089437E+01  -1.2239345E+00   3.9433026E+00
  -1.2504023E+01  -1.2683862E+00   4.0201960E+00
  -1.2933297E+01  -1.3166016E+00   4.0945635E+00
  -1.3378251E+01  -1.3690597E+00   4.1657872E+00
  -1.3839981E+01  -1.4263011E+00   4.2331572E+00
  -1.4319709E+01  -1.4889358E+00   4.2958527E+00
  -1.4818769E+01  -1.5576508E+00   4.3529296E+00
  -1.5338618E+01  -1.6332197E+00   4.4032989E+00
  -1.5880830E+01  -1.7165138E+00   4.4457111E+00
  -1.6447077E+01  -1.8085136E+00   4.4787388E+00
  -1.7039135E+01  -1.9103235E+00   4.5007606E+00
  -1.7658855E+01  -2.0231881E+00   4.5099468E+00
  -1.8308155E+01  -2.1485119E+00   4.5042510E+00
  -1.8988995E+01  -2.2878840E+00   4.4814024E+00
  -1.9703360E+01  -2.4431064E+00   4.4388962E+00
  -2.0453251E+01  -2.6162319E+00   4.3739963E+00
  -2.1240648E+01  -2.8096089E+00   4.2837219E+00
  -2.2067524E+01  -3.0259352E+00   4.1648464E+00
  -2.2935772E+01  -3.2683299E+00   4.0138631E+00
  -2.3847202E+01  -3.5404153E+00   3.8269689E+00
  -2.4803452E+01  -3.8464162E+00   3.6000216E+00
  -2.5805885E+01  -4.1912813E+00   3.3285182E+00
  -2.6855440E+01  -4.5808220E+00   3.0075734E+00
  -2.7952433E+01  -5.0218811E+00   2.6319566E+00
  -2.9096308E+01  -5.5225248E+00   2.1961496E+00
  -3.0285395E+01  -6.0922728E+00   1.6944867E+00
  -3.1516594E+01  -6.7423396E+00   1.1213045E+00
  -3.2785065E+01  -7.4858842E+00   4.7108322E-01
  -3.4083794E+01  -8.3381996E+00  -2.6145780E-01
  -3.5402908E+01  -9.3167353E+00  -1.0813782E+00
  -3.6728550E+01  -1.0440749E+01  -1.9935904E+00
  -3.8041168E+01  -1.1730330E+01  -3.0027695E+00
  -3.9312954E+01  -1.3204359E+01  -4.1127629E+00
  -4.0504818E+01  -1.4876984E+01  -5.3247852E+00
  -4.1563591E+01  -1.6752254E+01  -6.6336961E+00
  -4.2421196E+01  -1.8816910E+01  -8.0218487E+00
  -4.2998104E+01  -2.1032059E+01  -9.4508953E+00
  -4.3213554E+01  -2.3325588E+01  -1.0853212E+01
  -4.3003647E+01  -2.5588409E+01  -1.2126300E+01
  -4.2345718E+01  -2.7678486E+01  -1.3134451E+01
  -4.1282738E+01  -2.9435413E+01  -1.3721237E+01
  -3.9938637E+01  -3.0705559E+01  -1.3733009E+01
  -3.8514874E+01  -3.1372440E+01  -1.3048543E+01
  -3.7264660E+01  -3.1382776E+01  -1.1604971E+01
  -2.3587563E+01  -1.9882715E+01  -5.8307323E+00
  -1.9181919E-01  -1.3687706E-01   6.3718700E-01
  -1.8618488E-01  -1.7914009E-01   5.9460926E-01
  -1.6919613E-01  -2.1661758E-01   5.5811548E-01
  -1.4548302E-01  -2.4723148E-01   5.2957916E-01
  -1.1934090E-01  -2.7043724E-01   5.0921202E-01
  -9.3956947E-02  -2.8686523E-01   4.9600029E-01
  -7.1301460E-02  -2.9769611E-01   4.8843384E-01
  -5.2260876E-02  -3.0427694E-01   4.8492539E-01
  -9.2593403E+00  -8.8335752E-01   3.2976651E+00
  -9.5829430E+00  -9.0665972E-01   3.3791716E+00
  -9.9166994E+00  -9.3129939E-01   3.4609449E+00
  -1.0260995E+01  -9.5743442E-01   3.5427475E+00
  -1.0616268E+01  -9.8524445E-01   3.6243155E+00
  -1.0983017E+01  -1.0149338E+00   3.7053554E+00
  -1.1361810E+01  -1.0467349E+00   3.7855380E+00
  -1.1753291E+01  -1.0809113E+00   3.8644929E+00
  -1.2158195E+01  -1.1177614E+00   3.9417996E+00
  -1.2577352E+01  -1.1576241E+00   4.0169797E+00
  -1.3011695E+01  -1.2008824E+00   4.0894852E+00
  -1.3462278E+01  -1.2479696E+00   4.1586847E+00
  -1.3930271E+01  -1.2993759E+00   4.2238512E+00
  -1.4416972E+01  -1.3556547E+00   4.2841415E+00
  -1.4923809E+01  -1.4174315E+00   4.3385844E+00
  -1.5452340E+01  -1.4854125E+00   4.3860555E+00
  -1.6004250E+01  -1.5603951E+00   4.4252629E+00
  -1.6581347E+01  -1.6432804E+00   4.4547248E+00
  -1.7185551E+01  -1.7350868E+00   4.4727540E+00
  -1.7818876E+01  -1.8369673E+00   4.4774432E+00
  -1.8483435E+01  -1.9502294E+00   4.4666471E+00
  -1.9181406E+01  -2.0763609E+00   4.4379764E+00
  -1.9915033E+01  -2.2170596E+00   4.3887868E+00
  -2.0686609E+01  -2.3742721E+00   4.3161678E+00
  -2.1498472E+01  -2.5502434E+00   4.2169280E+00
  -2.2353006E+01  -2.7475722E+00   4.0875797E+00
  -2.3252605E+01  -2.9692922E+00   3.9242930E+00
  -2.4199669E+01  -3.2189598E+00   3.7228565E+00
  -2.5196547E+01  -3.5007699E+00   3.4786177E+00
  -2.6245445E+01  -3.8196926E+00   3.1864216E+00
  -2.7348316E+01  -4.1816459E+00   2.8405609E+00
  -2.8506668E+01  -4.5936995E+00   2.4347491E+00
  -2.9721386E+01  -5.0643330E+00   1.9621279E+00
  -3.0992470E+01  -5.6037388E+00   1.4152973E+00
  -3.2318806E+01  -6.2241869E+00   7.8633887E-01
  -3.3697803E+01  -6.9404182E+00   6.6775799E-02
  -3.5124878E+01  -7.7700305E+00  -7.5259495E-01
  -3.6592537E+01  -8.7337265E+00  -1.6820164E+00
  -3.8088821E+01  -9.8552265E+00  -2.7331755E+00
  -3.9594627E+01  -1.1160492E+01  -3.9193707E+00
  -4.1079899E+01  -1.2675757E+01  -5.2548919E+00
  -4.2498611E+01  -1.4423740E+01  -6.7526064E+00
  -4.3783756E+01  -1.6417416E+01  -8.4186192E+00
  -4.4844379E+01  -1.8651026E+01  -1.0243130E+01
  -4.5568127E+01  -2.1088860E+01  -1.2187559E+01
  -4.5833328E+01  -2.3653885E+01  -1.4170297E+01
  -4.5533329E+01  -2.6220299E+01  -1.6055761E+01
  -4.4611752E+01  -2.8615643E+01  -1.7654043E+01
  -4.3100677E+01  -3.0637846E+01  -1.8737846E+01
  -4.1147049E+01  -3.2088100E+01  -1.9078558E+01
  -3.9011307E+01  -3.2813213E+01  -1.8494251E+01
  -3.7030338E+01  -3.2743240E+01  -1.6893236E+01
  -3.5553230E+01  -3.1909008E+01  -1.4294697E+01
  -2.8904457E+00  -2.4640217E+00  -1.8248749E-01
  -2.2873306E-01  -1.9188118E-01   6.3859653E-01
  -2.0461464E-01  -2.3218727E-01   5.8705902E-01
  -1.7263222E-01  -2.6365852E-01   5.4731369E-01
  -1.3858700E-01  -2.8620625E-01   5.1928425E-01
  -1.0657024E-01  -3.0098820E-01   5.0131226E-01
  -7.8829765E-02  -3.0972672E-01   4.9103403E-01
  -5.6185722E-02  -3.1414175E-01   4.8613024E-01
  -9.3000593E+00  -8.0247974E-01   3.3058345E+00
  -9.6256161E+00  -8.2276779E-01   3.3866804E+00
  -9.9614954E+00  -8.4423375E-01   3.4677064E+00
  -1.0308105E+01  -8.6701602E-01   3.5486720E+00
  -1.0665910E+01  -8.9127237E-01   3.6293089E+00
  -1.1035434E+01  -9.1718197E-01   3.7093201E+00
  -1.1417274E+01  -9.4494867E-01   3.7883708E+00
  -1.1812113E+01  -9.7480398E-01   3.8660855E+00
  -1.2220722E+01  -1.0070105E+00   3.9420371E+00
  -1.2643976E+01  -1.0418662E+00   4.0157394E+00
  -1.3082863E+01  -1.0797083E+00   4.0866342E+00
  -1.3538487E+01  -1.1209195E+00   4.1540771E+00
  -1.4012087E+01  -1.1659328E+00   4.2173247E+00
  -1.4505032E+01  -1.2152382E+00   4.2755146E+00
  -1.5018832E+01  -1.2693908E+00   4.3276486E+00
  -1.5555139E+01  -1.3290188E+00   4.3725700E+00
  -1.6115744E+01  -1.3948336E+00   4.4089470E+00
  -1.6702572E+01  -1.4676411E+00   4.4352489E+00
  -1.7317682E+01  -1.5483562E+00   4.4497266E+00
  -1.7963247E+01  -1.6380183E+00   4.4503975E+00
  -1.8641558E+01  -1.7378116E+00   4.4350276E+00
  -1.9355001E+01  -1.8490896E+00   4.4011173E+00
  -2.0106068E+01  -1.9734064E+00   4.3458872E+00
  -2.0897345E+01  -2.1125541E+00   4.2662659E+00
  -2.1731506E+01  -2.2686136E+00   4.1588564E+00
  -2.2611361E+01  -2.4440110E+00   4.0199242E+00
  -2.3539797E+01  -2.6416013E+00   3.8453240E+00
  -2.4519823E+01  -2.8647614E+00   3.6304495E+00
  -2.5554522E+01  -3.1175110E+00   3.3701406E+00
  -2.6646992E+01  -3.4046664E+00   3.0585966E+00
  -2.7800266E+01  -3.7320256E+00   2.6892738E+00
  -2.9017187E+01  -4.1066113E+00   2.2548087E+00
  -3.0300247E+01  -4.5369692E+00   1.7469329E+00
  -3.1651428E+01  -5.0335445E+00   1.1563938E+00
  -3.3071995E+01  -5.6091433E+00   4.7279716E-01
  -3.4562195E+01  -6.2794757E+00  -3.1567264E-01
  -3.6120693E+01  -7.0637269E+00  -1.2227570E+00
  -3.7743488E+01  -7.9850745E+00  -2.2648849E+00
  -3.9421841E+01  -9.0709057E+00  -3.4620528E+00
  -4.1138763E+01  -1.0352389E+01  -4.8384862E+00
  -4.2863586E+01  -1.1862787E+01  -6.4222145E+00
  -4.4544678E+01  -1.3633698E+01  -8.2422199E+00
  -4.6101368E+01  -1.5688314E+01  -1.0321429E+01
  -4.7417725E+01  -1.8030930E+01  -1.2663909E+01
  -4.8342934E+01  -2.0632870E+01  -1.5235944E+01
  -4.8704411E+01  -2.3416836E+01  -1.7943424E+01
  -4.8338863E+01  -2.6244564E+01  -2.0612324E+01
  -4.7141670E+01  -2.8915688E+01  -2.2983543E+01
  -4.5124298E+01  -3.1185932E+01  -2.4734182E+01
  -4.2458115E+01  -3.2808258E+01  -2.5531017E+01
  -3.9477806E+01  -3.3589035E+01  -2.5106018E+01
  -3.6629761E+01  -3.3439949E+01  -2.3327290E+01
  -3.4377045E+01  -3.2402626E+01  -2.0233238E+01
  -3.3097454E+01  -3.0633884E+01  -1.6012995E+01
  -2.7319050E-01  -2.2638893E-01   6.8562126E-01
  -2.3987103E-01  -2.6517105E-01   6.1631012E-01
  -1.9798374E-01  -2.9340744E-01   5.6391144E-01
  -1.5507793E-01  -3.1172180E-01   5.2778149E-01
  -1.1604118E-01  -3.2200527E-01   5.0509024E-01
  -8.3288193E-02  -3.2647610E-01   4.9240065E-01
  -5.7362556E-02  -3.2715988E-01   4.8646045E-01
  -9.3360872E+00  -7.1964890E-01   3.3139355E+00
  -9.6633568E+00  -7.3674726E-01   3.3942449E+00
  -1.0001097E+01  -7.5484830E-01   3.4746609E+00
  -1.0349732E+01  -7.7406949E-01   3.5549395E+00
  -1.0709748E+01  -7.9454488E-01   3.6348097E+00
  -1.1081694E+01  -8.1642681E-01   3.7139699E+00
  -1.1466192E+01  -8.3988851E-01   3.7920818E+00
  -1.1863957E+01  -8.6512697E-01   3.8687649E+00
  -1.2275794E+01  -8.9236569E-01   3.9435863E+00
  -1.2702616E+01  -9.2185849E-01   4.0160518E+00
  -1.3145452E+01  -9.5389330E-01   4.0855947E+00
  -1.3605462E+01  -9.8879677E-01   4.1515603E+00
  -1.4083937E+01  -1.0269395E+00   4.2131891E+00
  -1.4582311E+01  -1.0687413E+00   4.2696004E+00
  -1.5102167E+01  -1.1146790E+00   4.3197742E+00
  -1.5645240E+01  -1.1652927E+00   4.3625250E+00
  -1.6213413E+01  -1.2211967E+00   4.3964834E+00
  -1.6808722E+01  -1.2830877E+00   4.4200759E+00
  -1.7433346E+01  -1.3517598E+00   4.4314985E+00
  -1.8089602E+01  -1.4281181E+00   4.4287019E+00
  -1.8779942E+01  -1.5131978E+00   4.4093699E+00
  -1.9506948E+01  -1.6081873E+00   4.3709040E+00
  -2.0273342E+01  -1.7144576E+00   4.3104048E+00
  -2.1081978E+01  -1.8335984E+00   4.2246490E+00
  -2.1935860E+01  -1.9674666E+00   4.1100583E+00
  -2.2838184E+01  -2.1182394E+00   3.9626651E+00
  -2.3792330E+01  -2.2884989E+00   3.7780337E+00
  -2.4801889E+01  -2.4813216E+00   3.5511839E+00
  -2.5870670E+01  -2.7003992E+00   3.2764797E+00
  -2.7002666E+01  -2.9501960E+00   2.9474995E+00
  -2.8202017E+01  -3.2361429E+00   2.5568936E+00
  -2.9472935E+01  -3.5648911E+00   2.0962348E+00
  -3.0819632E+01  -3.9446397E+00   1.5558507E+00
  -3.2246231E+01  -4.3855534E+00   9.2459416E-01
  -3.3756676E+01  -4.9002943E+00   1.8949628E-01
  -3.5354473E+01  -5.5046663E+00  -6.6482258E-01
  -3.7042202E+01  -6.2183604E+00  -1.6570616E+00
  -3.8820286E+01  -7.0656915E+00  -2.8105612E+00
  -4.0684517E+01  -8.0761528E+00  -4.1548662E+00
  -4.2621712E+01  -9.2843971E+00  -5.7271080E+00
  -4.4602604E+01  -1.0729009E+01  -7.5720954E+00
  -4.6571983E+01  -1.2449121E+01  -9.7393456E+00
  -4.8436893E+01  -1.4477675E+01  -1.2274538E+01
  -5.0055939E+01  -1.6830076E+01  -1.5202724E+01
  -5.1236000E+01  -1.9487926E+01  -1.8501980E+01
  -5.1744774E+01  -2.2379349E+01  -2.2069662E+01
  -5.1348633E+01  -2.5361404E+01  -2.5690189E+01
  -4.9878601E+01  -2.8214241E+01  -2.9020861E+01
  -4.7313396E+01  -3.0658865E+01  -3.1616529E+01
  -4.3848000E+01  -3.2405022E+01  -3.3005135E+01
  -3.9906258E+01  -3.3221413E+01  -3.2802238E+01
  -3.6071102E+01  -3.3002571E+01  -3.0821871E+01
  -3.2948143E+01  -3.1801218E+01  -2.7130953E+01
  -3.1019184E+01  -2.9808804E+01  -2.2017822E+01
  -1.6741627E+01  -1.4962645E+01  -8.3030920E+00
  -2.6954842E-01  -3.1944084E-01   6.3908577E-01
  -2.1688652E-01  -3.3845043E-01   5.7456112E-01
  -1.6507149E-01  -3.4776878E-01   5.3139973E-01
  -1.1958981E-01  -3.4998894E-01   5.0525808E-01
  -8.2688332E-02  -3.4768105E-01   4.9124479E-01
  -5.4438591E-02  -3.4294319E-01   4.8513532E-01
  -9.3666496E+00  -6.3517797E-01   3.3215008E+00
  -9.6953592E+00  -6.4894199E-01   3.4013903E+00
  -1.0034664E+01  -6.6352063E-01   3.4813266E+00
  -1.0385002E+01  -6.7900938E-01   3.5610621E+00
  -1.0746875E+01  -6.9551688E-01   3.6403234E+00
  -1.1120852E+01  -7.1316713E-01   3.7188058E+00
  -1.1507581E+01  -7.3210096E-01   3.7961674E+00
  -1.1907796E+01  -7.5247860E-01   3.8720233E+00
  -1.2322333E+01  -7.7448201E-01   3.9459364E+00
  -1.2752141E+01  -7.9831815E-01   4.0174065E+00
  -1.3198283E+01  -8.2422191E-01   4.0858579E+00
  -1.3661962E+01  -8.5246009E-01   4.1506267E+00
  -1.4144514E+01  -8.8333577E-01   4.2109418E+00
  -1.4647430E+01  -9.1719300E-01   4.2659073E+00
  -1.5172355E+01  -9.5442265E-01   4.3144813E+00
  -1.5721092E+01  -9.9546945E-01   4.3554559E+00
  -1.6295607E+01  -1.0408388E+00   4.3874302E+00
  -1.6898024E+01  -1.0911070E+00   4.4087930E+00
  -1.7530630E+01  -1.1469312E+00   4.4176941E+00
  -1.8195868E+01  -1.2090633E+00   4.4120264E+00
  -1.8896332E+01  -1.2783666E+00   4.3894043E+00
  -1.9634773E+01  -1.3558353E+00   4.3471432E+00
  -2.0414112E+01  -1.4426215E+00   4.2822385E+00
  -2.1237446E+01  -1.5400670E+00   4.1913381E+00
  -2.2108078E+01  -1.6497477E+00   4.0707021E+00
  -2.3029552E+01  -1.7735201E+00   3.9161601E+00
  -2.4005695E+01  -1.9136000E+00   3.7230172E+00
  -2.5040636E+01  -2.0726435E+00   3.4859624E+00
  -2.6138861E+01  -2.2538621E+00   3.1989274E+00
  -2.7305202E+01  -2.4611681E+00   2.8549294E+00
  -2.8544859E+01  -2.6993618E+00   2.4458754E+00
  -2.9863379E+01  -2.9743800E+00   1.9623531E+00
  -3.1266672E+01  -3.2936180E+00   1.3933589E+00