# vtk DataFile Version 3.0
T01 + IGRF magnetic field in GSW coordinates
ASCII
DATASET STRUCTURED_GRID
DIMENSIONS     61    21    21
POINTS    26901 float
     -50.000000     -10.000000     -10.000000
     -49.000000     -10.000000     -10.000000
     -48.000000     -10.000000     -10.000000
     -47.000000     -10.000000     -10.000000
     -46.000000     -10.000000     -10.000000
     -45.000000     -10.000000     -10.000000
     -44.000000     -10.000000     -10.000000
     -43.000000     -10.000000     -10.000000
     -42.000000     -10.000000     -10.000000
     -41.000000     -10.000000     -10.000000
     -40.000000     -10.000000     -10.000000
     -39.000000     -10.000000     -10.000000
     -38.000000     -10.000000     -10.000000
     -37.000000     -10.000000     -10.000000
     -36.000000     -10.000000     -10.000000
     -35.000000     -10.000000     -10.000000
     -34.000000     -10.000000     -10.000000
     -33.000000     -10.000000     -10.000000
     -32.000000     -10.000000     -10.000000
     -31.000000     -10.000000     -10.000000
     -30.000000     -10.000000     -10.000000
     -29.000000     -10.000000     -10.000000
     -28.000000     -10.000000     -10.000000
     -27.000000     -10.000000     -10.000000
     -26.000000     -10.000000     -10.000000
     -25.000000     -10.000000     -10.000000
     -24.000000     -10.000000     -10.000000
     -23.000000     -10.000000     -10.000000
     -22.000000     -10.000000     -10.000000
     -21.000000     -10.000000     -10.000000
     -20.000000     -10.000000     -10.000000
     -19.000000     -10.000000     -10.000000
     -18.000000     -10.000000     -10.000000
     -17.000000     -10.000000     -10.000000
     -16.000000     -10.000000     -10.000000
     -15.000000     -10.000000     -10.000000
     -14.000000     -10.000000     -10.000000
     -13.000000     -10.000000     -10.000000
     -12.000000     -10.000000     -10.000000
     -11.000000     -10.000000     -10.000000
     -10.000000     -10.000000     -10.000000
      -9.000000     -10.000000     -10.000000
      -8.000000     -10.000000     -10.000000
      -7.000000     -10.000000     -10.000000
      -6.000000     -10.000000     -10.000000
      -5.000000     -10.000000     -10.000000
      -4.000000     -10.000000     -10.000000
      -3.000000     -10.000000     -10.000000
      -2.000000     -10.000000     -10.000000
      -1.000000     -10.000000     -10.000000
       0.000000     -10.000000     -10.000000
       1.000000     -10.000000     -10.000000
       2.000000     -10.000000     -10.000000
       3.000000     -10.000000     -10.000000
       4.000000     -10.000000     -10.000000
       5.000000     -10.000000     -10.000000
       6.000000     -10.000000     -10.000000
       7.000000     -10.000000     -10.000000
       8.000000     -10.000000     -10.000000
       9.000000     -10.000000     -10.000000
      10.000000     -10.000000     -10.000000
     -50.000000      -9.000000     -10.000000
     -49.000000      -9.000000     -10.000000
     -48.000000      -9.000000     -10.000000
     -47.000000      -9.000000     -10.000000
     -46.000000      -9.000000     -10.000000
     -45.000000      -9.000000     -10.000000
     -44.000000      -9.000000     -10.000000
     -43.000000      -9.000000     -10.000000
     -42.000000      -9.000000     -10.000000
     -41.000000      -9.000000     -10.000000
     -40.000000      -9.000000     -10.000000
     -39.000000      -9.000000     -10.000000
     -38.000000      -9.000000     -10.000000
     -37.000000      -9.000000     -10.000000
     -36.000000      -9.000000     -10.000000
     -35.000000      -9.000000     -10.000000
     -34.000000      -9.000000     -10.000000
     -33.000000      -9.000000     -10.000000
     -32.000000      -9.000000     -10.000000
     -31.000000      -9.000000     -10.000000
     -30.000000      -9.000000     -10.000000
     -29.000000      -9.000000     -10.000000
     -28.000000      -9.000000     -10.000000
     -27.000000      -9.000000     -10.000000
     -26.000000      -9.000000     -10.000000
     -25.000000      -9.000000     -10.000000
     -24.000000      -9.000000     -10.000000
     -23.000000      -9.000000     -10.000000
     -22.000000      -9.000000     -10.000000
     -21.000000      -9.000000     -10.000000
     -20.000000      -9.000000     -10.000000
     -19.000000      -9.000000     -10.000000
     -18.000000      -9.000000     -10.000000
     -17.000000      -9.000000     -10.000000
     -16.000000      -9.000000     -10.000000
     -15.000000      -9.000000     -10.000000
     -14.000000      -9.000000     -10.000000
     -13.000000      -9.000000     -10.000000
     -12.000000      -9.000000     -10.000000
     -11.000000      -9.000000     -10.000000
     -10.000000      -9.000000     -10.000000
      -9.000000      -9.000000     -10.000000
      -8.000000      -9.000000     -10.000000
      -7.000000      -9.000000     -10.000000
      -6.000000      -9.000000     -10.000000
      -5.000000      -9.000000     -10.000000
      -4.000000      -9.000000     -10.000000
      -3.000000      -9.000000     -10.000000
      -2.000000      -9.000000     -10.000000
      -1.000000      -9.000000     -10.000000
       0.000000      -9.000000     -10.000000
       1.000000      -9.000000     -10.000000
       2.000000      -9.000000     -10.000000
       3.000000      -9.000000     -10.000000
       4.000000      -9.000000     -10.000000
       5.000000      -9.000000     -10.000000
       6.000000      -9.000000     -10.000000
       7.000000      -9.000000     -10.000000
       8.000000      -9.000000     -10.000000
       9.000000      -9.000000     -10.000000
      10.000000      -9.000000     -10.000000
     -50.000000      -8.000000     -10.000000
     -49.000000      -8.000000     -10.000000
     -48.000000      -8.000000     -10.000000
     -47.000000      -8.000000     -10.000000
     -46.000000      -8.000000     -10.000000
     -45.000000      -8.000000     -10.000000
     -44.000000      -8.000000     -10.000000
     -43.000000      -8.000000     -10.000000
     -42.000000      -8.000000     -10.000000
     -41.000000      -8.000000     -10.000000
     -40.000000      -8.000000     -10.000000
     -39.000000      -8.000000     -10.000000
     -38.000000      -8.000000     -10.000000
     -37.000000      -8.000000     -10.000000
     -36.000000      -8.000000     -10.000000
     -35.000000      -8.000000     -10.000000
     -34.000000      -8.000000     -10.000000
     -33.000000      -8.000000     -10.000000
     -32.000000      -8.000000     -10.000000
     -31.000000      -8.000000     -10.000000
     -30.000000      -8.000000     -10.000000
     -29.000000      -8.000000     -10.000000
     -28.000000      -8.000000     -10.000000
     -27.000000      -8.000000     -10.000000
     -26.000000      -8.000000     -10.000000
     -25.000000      -8.000000     -10.000000
     -24.000000      -8.000000     -10.000000
     -23.000000      -8.000000     -10.000000
     -22.000000      -8.000000     -10.000000
     -21.000000      -8.000000     -10.000000
     -20.000000      -8.000000     -10.000000
     -19.000000      -8.000000     -10.000000
     -18.000000      -8.000000     -10.000000
     -17.000000      -8.000000     -10.000000
     -16.000000      -8.000000     -10.000000
     -15.000000      -8.000000     -10.000000
     -14.000000      -8.000000     -10.000000
     -13.000000      -8.000000     -10.000000
     -12.000000      -8.000000     -10.000000
     -11.000000      -8.000000     -10.000000
     -10.000000      -8.000000     -10.000000
      -9.000000      -8.000000     -10.000000
      -8.000000      -8.000000     -10.000000
      -7.000000      -8.000000     -10.000000
      -6.000000      -8.000000     -10.000000
      -5.000000      -8.000000     -10.000000
      -4.000000      -8.000000     -10.000000
      -3.000000      -8.000000     -10.000000
      -2.000000      -8.000000     -10.000000
      -1.000000      -8.000000     -10.000000
       0.000000      -8.000000     -10.000000
       1.000000      -8.000000     -10.000000
       2.000000      -8.000000     -10.000000
       3.000000      -8.000000     -10.000000
       4.000000      -8.000000     -10.000000
       5.000000      -8.000000     -10.000000
       6.000000      -8.000000     -10.000000
       7.000000      -8.000000     -10.000000
       8.000000      -8.000000     -10.000000
       9.000000      -8.000000     -10.000000
      10.000000      -8.000000     -10.000000
     -50.000000      -7.000000     -10.000000
     -49.000000      -7.000000     -10.000000
     -48.000000      -7.000000     -10.000000
     -47.000000      -7.000000     -10.000000
     -46.000000      -7.000000     -10.000000
     -45.000000      -7.000000     -10.000000
     -44.000000      -7.000000     -10.000000
     -43.000000      -7.000000     -10.000000
     -42.000000      -7.000000     -10.000000
     -41.000000      -7.000000     -10.000000
     -40.000000      -7.000000     -10.000000
     -39.000000      -7.000000     -10.000000
     -38.000000      -7.000000     -10.000000
     -37.000000      -7.000000     -10.000000
     -36.000000      -7.000000     -10.000000
     -35.000000      -7.000000     -10.000000
     -34.000000      -7.000000     -10.000000
     -33.000000      -7.000000     -10.000000
     -32.000000      -7.000000     -10.000000
     -31.000000      -7.000000     -10.000000
     -30.000000      -7.000000     -10.000000
     -29.000000      -7.000000     -10.000000
     -28.000000      -7.000000     -10.000000
     -27.000000      -7.000000     -10.000000
     -26.000000      -7.000000     -10.000000
     -25.000000      -7.000000     -10.000000
[...]
POINT_DATA    26901
VECTORS B_total float
  -1.0394524E+01  -1.5370821E+00   3.1658766E+00
  -1.0740632E+01  -1.5792079E+00   3.2542317E+00
  -1.1095676E+01  -1.6228330E+00   3.3433373E+00
  -1.1459850E+01  -1.6681211E+00   3.4328725E+00
  -1.1833379E+01  -1.7152622E+00   3.5224738E+00
  -1.2216535E+01  -1.7644764E+00   3.6117282E+00
  -1.2609642E+01  -1.8160157E+00   3.7001677E+00
  -1.3013081E+01  -1.8701692E+00   3.7872627E+00
  -1.3427300E+01  -1.9272650E+00   3.8724139E+00
  -1.3852821E+01  -1.9876764E+00   3.9549444E+00
  -1.4290239E+01  -2.0518248E+00   4.0340891E+00
  -1.4740238E+01  -2.1201854E+00   4.1089840E+00
  -1.5203586E+01  -2.1932912E+00   4.1786571E+00
  -1.5681136E+01  -2.2717409E+00   4.2420130E+00
  -1.6173830E+01  -2.3562040E+00   4.2978239E+00
  -1.6682690E+01  -2.4474287E+00   4.3447204E+00
  -1.7208809E+01  -2.5462513E+00   4.3811755E+00
  -1.7753336E+01  -2.6536062E+00   4.4055042E+00
  -1.8317467E+01  -2.7705383E+00   4.4158554E+00
  -1.8902412E+01  -2.8982196E+00   4.4102116E+00
  -1.9509384E+01  -3.0379670E+00   4.3863935E+00
  -2.0139549E+01  -3.1912656E+00   4.3420696E+00
  -2.0794014E+01  -3.3597975E+00   4.2747679E+00
  -2.1473761E+01  -3.5454760E+00   4.1818938E+00
  -2.2179623E+01  -3.7504861E+00   4.0607524E+00
  -2.2912216E+01  -3.9773347E+00   3.9085698E+00
  -2.3671854E+01  -4.2289047E+00   3.7225201E+00
  -2.4458466E+01  -4.5085244E+00   3.4997578E+00
  -2.5271458E+01  -4.8200340E+00   3.2374628E+00
  -2.6109539E+01  -5.1678743E+00   2.9329126E+00
  -2.6970503E+01  -5.5571628E+00   2.5835924E+00
  -2.7850979E+01  -5.9937887E+00   2.1873689E+00
  -2.8746117E+01  -6.4844866E+00   1.7427326E+00
  -2.9649290E+01  -7.0368953E+00   1.2491363E+00
  -3.0551767E+01  -7.6595516E+00   7.0740485E-01
  -3.1442427E+01  -8.3617859E+00   1.2021875E-01
  -3.2307503E+01  -9.1534214E+00  -5.0738347E-01
  -3.3130371E+01  -1.0044168E+01  -1.1674757E+00
  -3.3891384E+01  -1.1042556E+01  -1.8487463E+00
  -3.4567791E+01  -1.2154259E+01  -2.5359280E+00
  -3.5133793E+01  -1.3379637E+01  -3.2090991E+00
  -3.5561066E+01  -1.4710472E+01  -3.8425899E+00
  -3.5820137E+01  -1.6126118E+01  -4.4034085E+00
  -3.5883408E+01  -1.7589521E+01  -4.8491035E+00
  -3.5730438E+01  -1.9044231E+01  -5.1256337E+00
  -3.5355862E+01  -2.0413677E+01  -5.1661553E+00
  -3.4778969E+01  -2.1604156E+01  -4.8921475E+00
  -3.4052990E+01  -2.2512566E+01  -4.2179060E+00
  -3.3270485E+01  -2.3038425E+01  -3.0583420E+00
   1.1479580E-01  -3.7037945E-01   2.9541254E-01
   1.3573456E-01  -3.4258652E-01   3.1626987E-01
   1.4690065E-01  -3.1274700E-01   3.4287834E-01
   1.4767027E-01  -2.8398418E-01   3.7229824E-01
   1.3908005E-01  -2.5907421E-01   4.0154576E-01
   1.2340212E-01  -2.3986912E-01   4.2818379E-01
   1.0350275E-01  -2.2714996E-01   4.5065141E-01
   8.2149506E-02  -2.2067833E-01   4.6831626E-01
   6.1578274E-02  -2.1952868E-01   4.8130843E-01
   4.3251991E-02  -2.2239876E-01   4.9024555E-01
   2.7925968E-02  -2.2796488E-01   4.9595404E-01
   1.5775204E-02  -2.3505640E-01   4.9928284E-01
  -1.0439980E+01  -1.4317926E+00   3.1575954E+00
  -1.0787539E+01  -1.4703825E+00   3.2440469E+00
  -1.1144192E+01  -1.5103385E+00   3.3310752E+00
  -1.1510153E+01  -1.5518104E+00   3.4183547E+00
  -1.1885678E+01  -1.5949725E+00   3.5055168E+00
  -1.2271072E+01  -1.6400261E+00   3.5921428E+00
  -1.2666694E+01  -1.6872028E+00   3.6777596E+00
  -1.3072962E+01  -1.7367679E+00   3.7618320E+00
  -1.3490366E+01  -1.7890241E+00   3.8437545E+00
  -1.3919472E+01  -1.8443152E+00   3.9228430E+00
  -1.4360926E+01  -1.9030306E+00   3.9983244E+00
  -1.4815465E+01  -1.9656103E+00   4.0693254E+00
  -1.5283912E+01  -2.0325496E+00   4.1348610E+00
  -1.5767185E+01  -2.1044059E+00   4.1938233E+00
  -1.6266294E+01  -2.1818054E+00   4.2449679E+00
  -1.6782333E+01  -2.2654510E+00   4.2869024E+00
  -1.7316477E+01  -2.3561320E+00   4.3180752E+00
  -1.7869968E+01  -2.4547358E+00   4.3367696E+00
  -1.8444107E+01  -2.5622621E+00   4.3410931E+00
  -1.9040222E+01  -2.6798401E+00   4.3289785E+00
  -1.9659660E+01  -2.8087502E+00   4.2981825E+00
  -2.0303755E+01  -2.9504497E+00   4.2462888E+00
  -2.0973793E+01  -3.1066070E+00   4.1707187E+00
  -2.1670996E+01  -3.2791409E+00   4.0687399E+00
  -2.2396458E+01  -3.4702692E+00   3.9374750E+00
  -2.3151115E+01  -3.6825695E+00   3.7739148E+00
  -2.3935665E+01  -3.9190464E+00   3.5749321E+00
  -2.4750484E+01  -4.1832204E+00   3.3372941E+00
  -2.5595512E+01  -4.4792233E+00   3.0576897E+00
  -2.6470076E+01  -4.8119106E+00   2.7327743E+00
  -2.7372702E+01  -5.1870017E+00   2.3592513E+00
  -2.8300861E+01  -5.6112118E+00   1.9339957E+00
  -2.9250673E+01  -6.0924144E+00   1.4542422E+00
  -3.0216572E+01  -6.6397839E+00   9.1783166E-01
  -3.1190941E+01  -7.2638888E+00   3.2351664E-01
  -3.2163685E+01  -7.9766912E+00  -3.2870081E-01
  -3.3121742E+01  -8.7913446E+00  -1.0371816E+00
  -3.4048454E+01  -9.7216253E+00  -1.7982508E+00
  -3.4922825E+01  -1.0780855E+01  -2.6056705E+00
  -3.5718559E+01  -1.1979990E+01  -3.4498601E+00
  -3.6403198E+01  -1.3324743E+01  -4.3165894E+00
  -3.6937599E+01  -1.4811485E+01  -5.1847963E+00
  -3.7276703E+01  -1.6422127E+01  -6.0232768E+00
  -3.7372715E+01  -1.8118469E+01  -6.7863588E+00
  -3.7181973E+01  -1.9837261E+01  -7.4093375E+00
  -3.6676247E+01  -2.1487911E+01  -7.8054805E+00
  -3.5857479E+01  -2.2955093E+01  -7.8668928E+00
  -3.4772964E+01  -2.4108208E+01  -7.4715638E+00
  -3.3525433E+01  -2.4817934E+01  -6.4970188E+00
  -3.2272137E+01  -2.4976915E+01  -4.8381462E+00
  -6.5401864E-01  -9.4891548E-01   2.0924664E-01
   1.7945480E-01  -2.7849960E-01   3.1707764E-01
   1.7666674E-01  -2.4525833E-01   3.5698795E-01
   1.6191339E-01  -2.1822834E-01   3.9548445E-01
   1.3878441E-01  -1.9946289E-01   4.2924953E-01
   1.1143303E-01  -1.8936157E-01   4.5642304E-01
   8.3618164E-02  -1.8706417E-01   4.7657359E-01
   5.8088303E-02  -1.9089031E-01   4.9031729E-01
   3.6431313E-02  -1.9890213E-01   4.9884462E-01
   1.9233704E-02  -2.0930481E-01   5.0349510E-01
   6.3629150E-03  -2.2064877E-01   5.0550365E-01
  -1.0472452E+01  -1.3201618E+00   3.1469052E+00
  -1.0821063E+01  -1.3550037E+00   3.2315950E+00
  -1.1178905E+01  -1.3910729E+00   3.3167131E+00
  -1.1546215E+01  -1.4285046E+00   3.4019301E+00
  -1.1923279E+01  -1.4674565E+00   3.4868741E+00
  -1.2310428E+01  -1.5081103E+00   3.5711241E+00
  -1.2708052E+01  -1.5506762E+00   3.6542032E+00
  -1.3116608E+01  -1.5953947E+00   3.7355733E+00
  -1.3536622E+01  -1.6425408E+00   3.8146260E+00
  -1.3968703E+01  -1.6924273E+00   3.8906732E+00
  -1.4413545E+01  -1.7454091E+00   3.9629366E+00
  -1.4871929E+01  -1.8018880E+00   4.0305376E+00
  -1.5344737E+01  -1.8623179E+00   4.0924845E+00
  -1.5832947E+01  -1.9272109E+00   4.1476598E+00
  -1.6337629E+01  -1.9971442E+00   4.1948071E+00
  -1.6859955E+01  -2.0727687E+00   4.2325182E+00
  -1.7401176E+01  -2.1548181E+00   4.2592235E+00
  -1.7962635E+01  -2.2441227E+00   4.2731791E+00
  -1.8545723E+01  -2.3416235E+00   4.2724600E+00
  -1.9151897E+01  -2.4483902E+00   4.2549548E+00
  -1.9782650E+01  -2.5656457E+00   4.2183614E+00
  -2.0439480E+01  -2.6947942E+00   4.1601896E+00
  -2.1123877E+01  -2.8374569E+00   4.0777578E+00
  -2.1837305E+01  -2.9955173E+00   3.9681985E+00
  -2.2581156E+01  -3.1711762E+00   3.8284569E+00
  -2.3356716E+01  -3.3670173E+00   3.6552911E+00
  -2.4165115E+01  -3.5860925E+00   3.4452660E+00
  -2.5007250E+01  -3.8320215E+00   3.1947501E+00
  -2.5883682E+01  -4.1091127E+00   2.8999174E+00
  -2.6794497E+01  -4.4225101E+00   2.5567575E+00
  -2.7739132E+01  -4.7783680E+00   2.1611137E+00
  -2.8716145E+01  -5.1840563E+00   1.7087469E+00
  -2.9722942E+01  -5.6483860E+00   1.1954343E+00
  -3.0755451E+01  -6.1818557E+00   6.1710137E-01
  -3.1807693E+01  -6.7968645E+00  -3.0030400E-02
  -3.2871250E+01  -7.5078526E+00  -7.4928796E-01
  -3.3934517E+01  -8.3312407E+00  -1.5433779E+00
  -3.4981647E+01  -9.2850189E+00  -2.4141569E+00
  -3.5991062E+01  -1.0387715E+01  -3.3621850E+00
  -3.6933556E+01  -1.1656471E+01  -4.3857708E+00
  -3.7770061E+01  -1.3103800E+01  -5.4790721E+00
  -3.8449753E+01  -1.4732777E+01  -6.6286392E+00
  -3.8909565E+01  -1.6530529E+01  -7.8079782E+00
  -3.9077015E+01  -1.8460539E+01  -8.9702063E+00
  -3.8878441E+01  -2.0455050E+01  -1.0039842E+01
  -3.8254200E+01  -2.2410084E+01  -1.0906424E+01
  -3.7180412E+01  -2.4186737E+01  -1.1423892E+01
  -3.5692940E+01  -2.5621758E+01  -1.1419991E+01
  -3.3905586E+01  -2.6549326E+01  -1.0717604E+01
  -3.2012192E+01  -2.6830315E+01  -9.1649771E+00
  -3.0265827E+01  -2.6381378E+01  -6.6656857E+00
  -2.0072236E+00  -2.1310005E+00   3.0639648E-02
   2.0841503E-01  -1.8901634E-01   3.5039520E-01
   1.8451786E-01  -1.6177559E-01   3.9978743E-01
   1.5122223E-01  -1.4603710E-01   4.4104958E-01
   1.1444569E-01  -1.4149761E-01   4.7222805E-01
   7.9090118E-02  -1.4623070E-01   4.9348354E-01
   4.8345566E-02  -1.5750980E-01   5.0631344E-01
   2.3719788E-02  -1.7262793E-01   5.1277637E-01
   5.3720474E-03  -1.8929386E-01   5.1491833E-01
  -7.3533058E-03  -2.0584822E-01   5.1443756E-01
  -1.0494051E+01  -1.2024815E+00   3.1333294E+00
  -1.0843388E+01  -1.2333866E+00   3.2163866E+00
  -1.1202075E+01  -1.2653763E+00   3.2997468E+00
  -1.1570374E+01  -1.2985704E+00   3.3830795E+00
  -1.1948592E+01  -1.3331089E+00   3.4660110E+00
  -1.2337089E+01  -1.3691540E+00   3.5481191E+00
  -1.2736283E+01  -1.4068928E+00   3.6289268E+00
  -1.3146663E+01  -1.4465400E+00   3.7078943E+00
  -1.3568790E+01  -1.4883412E+00   3.7844124E+00
  -1.4003313E+01  -1.5325762E+00   3.8577919E+00
  -1.4450965E+01  -1.5795634E+00   3.9272532E+00
  -1.4912577E+01  -1.6296638E+00   3.9919152E+00
  -1.5389079E+01  -1.6832857E+00   4.0507827E+00
  -1.5881504E+01  -1.7408917E+00   4.1027317E+00
  -1.6390987E+01  -1.8030044E+00   4.1464996E+00
  -1.6918766E+01  -1.8702154E+00   4.1806684E+00
  -1.7466171E+01  -1.9431951E+00   4.2036529E+00
  -1.8034630E+01  -2.0227051E+00   4.2136893E+00
  -1.8625643E+01  -2.1096129E+00   4.2088256E+00
  -1.9240789E+01  -2.2049127E+00   4.1869130E+00
  -1.9881697E+01  -2.3097460E+00   4.1455989E+00
  -2.0550043E+01  -2.4254358E+00   4.0823226E+00
  -2.1247524E+01  -2.5535202E+00   3.9943085E+00
  -2.1975853E+01  -2.6958017E+00   3.8785617E+00
  -2.2736732E+01  -2.8544064E+00   3.7318552E+00
  -2.3531828E+01  -3.0318532E+00   3.5507195E+00
  -2.4362732E+01  -3.2311497E+00   3.3314147E+00
  -2.5230904E+01  -3.4559007E+00   3.0699091E+00
  -2.6137609E+01  -3.7104511E+00   2.7618477E+00
  -2.7083797E+01  -4.0000567E+00   2.4025283E+00
  -2.8069969E+01  -4.3310976E+00   1.9868791E+00
  -2.9095980E+01  -4.7113295E+00   1.5094488E+00
  -3.0160820E+01  -5.1501918E+00   9.6439421E-01
  -3.1262308E+01  -5.6591434E+00   3.4546217E-01
  -3.2396633E+01  -6.2520046E+00  -3.5406113E-01
  -3.3557751E+01  -6.9452567E+00  -1.1414483E+00
  -3.4736374E+01  -7.7581854E+00  -2.0246582E+00
  -3.5918514E+01  -8.7126884E+00  -3.0123987E+00
  -3.7083199E+01  -9.8324509E+00  -4.1138854E+00
  -3.8199429E+01  -1.1141139E+01  -5.3378711E+00
  -3.9222351E+01  -1.2659072E+01  -6.6902246E+00
  -4.0089363E+01  -1.4397846E+01  -8.1691628E+00
  -4.0717670E+01  -1.6352596E+01  -9.7573357E+00
  -4.1005802E+01  -1.8492046E+01  -1.1410470E+01
  -4.0842514E+01  -2.0747614E+01  -1.3043884E+01
  -4.0126232E+01  -2.3004860E+01  -1.4520452E+01
  -3.8795406E+01  -2.5101677E+01  -1.5646189E+01
  -3.6865372E+01  -2.6839399E+01  -1.6181154E+01
  -3.4459366E+01  -2.8009563E+01  -1.5870405E+01
  -3.1817396E+01  -2.8433762E+01  -1.4492167E+01
  -2.9269697E+01  -2.8005356E+01  -1.1909123E+01
  -2.7175571E+01  -2.6716503E+01  -8.1012745E+00
   2.4087143E-01  -1.1256409E-01   3.6123180E-01
   2.0390415E-01  -8.8369370E-02   4.2232418E-01
   1.5729809E-01  -7.9573631E-02   4.7009945E-01
   1.0916519E-01  -8.4500313E-02   5.0304508E-01
   6.5609932E-02  -9.9699020E-02   5.2254677E-01
   3.0044556E-02  -1.2118340E-01   5.3155875E-01
   3.4551620E-03  -1.4535093E-01   5.3339630E-01
  -1.4747620E-02  -1.6952991E-01   5.3096002E-01
  -2.6015282E-02  -1.9199657E-01   5.2642918E-01
  -1.0507028E+01  -1.0791126E+00   3.1173141E+00
  -1.0856836E+01  -1.1059115E+00   3.1988740E+00
  -1.1216101E+01  -1.1336480E+00   3.2806351E+00
  -1.1585100E+01  -1.1624271E+00   3.3622665E+00
  -1.1964164E+01  -1.1923704E+00   3.4433939E+00
  -1.2353674E+01  -1.2236192E+00   3.5235958E+00
  -1.2754078E+01  -1.2563372E+00   3.6023948E+00
  -1.3165892E+01  -1.2907112E+00   3.6792536E+00
  -1.3589708E+01  -1.3269565E+00   3.7535625E+00
  -1.4026208E+01  -1.3653181E+00   3.8246338E+00
  -1.4476167E+01  -1.4060751E+00   3.8916888E+00
  -1.4940454E+01  -1.4495447E+00   3.9538457E+00
  -1.5420046E+01  -1.4960865E+00   4.0101085E+00
  -1.5916028E+01  -1.5461086E+00   4.0593519E+00
  -1.6429590E+01  -1.6000737E+00   4.1003084E+00
  -1.6962038E+01  -1.6585072E+00   4.1315536E+00
  -1.7514772E+01  -1.7220067E+00   4.1514921E+00
  -1.8089302E+01  -1.7912533E+00   4.1583447E+00
  -1.8687235E+01  -1.8670282E+00   4.1501379E+00
  -1.9310259E+01  -1.9502295E+00   4.1246910E+00
  -1.9960146E+01  -2.0418961E+00   4.0796061E+00
  -2.0638737E+01  -2.1432381E+00   4.0122600E+00
  -2.1347935E+01  -2.2556734E+00   3.9197927E+00
  -2.2089710E+01  -2.3808746E+00   3.7990887E+00
  -2.2866066E+01  -2.5208292E+00   3.6467605E+00
  -2.3679060E+01  -2.6779134E+00   3.4591203E+00
  -2.4530756E+01  -2.8549876E+00   3.2321355E+00
  -2.5423214E+01  -3.0555134E+00   2.9613817E+00
  -2.6358435E+01  -3.2837062E+00   2.6419806E+00
  -2.7338299E+01  -3.5447211E+00   2.2685328E+00
  -2.8364468E+01  -3.8448946E+00   1.8350276E+00
  -2.9438265E+01  -4.1920338E+00   1.3347459E+00
  -3.0560490E+01  -4.5957770E+00   7.6012349E-01
  -3.1731165E+01  -5.0680132E+00   1.0254764E-01
  -3.2949131E+01  -5.6233444E+00  -6.4793503E-01
  -3.4211349E+01  -6.2795429E+00  -1.5030329E+00
  -3.5511753E+01  -7.0579090E+00  -2.4767270E+00
  -3.6839340E+01  -7.9833565E+00  -3.5857606E+00
  -3.8175179E+01  -9.0839071E+00  -4.8497934E+00
  -3.9488110E+01  -1.0389198E+01  -6.2906427E+00
  -4.0729034E+01  -1.1927316E+01  -7.9295492E+00
  -4.1824539E+01  -1.3719254E+01  -9.7812338E+00
  -4.2671532E+01  -1.5770267E+01  -1.1843218E+01
  -4.3136230E+01  -1.8057859E+01  -1.4079617E+01
  -4.3062611E+01  -2.0517601E+01  -1.6400429E+01
  -4.2295456E+01  -2.3029848E+01  -1.8640776E+01
  -4.0721210E+01  -2.5413887E+01  -2.0549324E+01
  -3.8321735E+01  -2.7437557E+01  -2.1798552E+01
  -3.5224709E+01  -2.8848452E+01  -2.2027098E+01
  -3.1724697E+01  -2.9425014E+01  -2.0912933E+01
  -2.8251427E+01  -2.9032993E+01  -1.8256319E+01
  -2.5283113E+01  -2.7664352E+01  -1.4037224E+01
  -2.3232998E+01  -2.5438992E+01  -8.4160881E+00
   2.1570396E-01  -1.7547607E-04   4.7315025E-01
   1.5252686E-01  -3.2997131E-03   5.2411270E-01
   9.1633797E-02  -2.2181511E-02   5.5424213E-01
   4.0096283E-02  -5.1364899E-02   5.6716061E-01
   9.9849701E-04  -8.5439682E-02   5.6798506E-01
  -2.5691032E-02  -1.2008095E-01   5.6164455E-01
  -4.1821480E-02  -1.5242004E-01   5.5197370E-01
  -4.9863815E-02  -1.8094110E-01   5.4152191E-01
  -1.0513607E+01  -9.5055342E-01   3.0999942E+00
  -1.0863701E+01  -9.7309351E-01   3.1802154E+00
  -1.1223338E+01  -9.9642181E-01   3.2605562E+00
  -1.1592816E+01  -1.0206265E+00   3.3406866E+00
  -1.1972485E+01  -1.0458109E+00   3.4202330E+00
  -1.2362742E+01  -1.0720947E+00   3.4987750E+00
  -1.2764061E+01  -1.0996162E+00   3.5758381E+00
  -1.3176983E+01  -1.1285344E+00   3.6508853E+00
  -1.3602126E+01  -1.1590317E+00   3.7233100E+00
  -1.4040203E+01  -1.1913166E+00   3.7924259E+00
  -1.4492021E+01  -1.2256266E+00   3.8574567E+00
  -1.4958488E+01  -1.2622323E+00   3.9175220E+00
  -1.5440620E+01  -1.3014408E+00   3.9716268E+00
  -1.5939548E+01  -1.3436012E+00   4.0186462E+00
  -1.6456516E+01  -1.3891109E+00   4.0573101E+00
  -1.6992880E+01  -1.4384216E+00   4.0861907E+00
  -1.7550114E+01  -1.4920490E+00   4.1036859E+00
  -1.8129805E+01  -1.5505835E+00   4.1080046E+00
  -1.8733646E+01  -1.6147044E+00   4.0971556E+00
  -1.9363438E+01  -1.6851957E+00   4.0689306E+00
  -2.0021074E+01  -1.7629700E+00   4.0208955E+00
  -2.0708565E+01  -1.8490946E+00   3.9503715E+00
  -2.1428005E+01  -1.9448278E+00   3.8544202E+00
  -2.2181599E+01  -2.0516629E+00   3.7298212E+00
  -2.2971655E+01  -2.1713853E+00   3.5730386E+00
  -2.3800594E+01  -2.3061433E+00   3.3801830E+00
  -2.4670956E+01  -2.4585428E+00   3.1469491E+00
  -2.5585382E+01  -2.6317637E+00   2.8685422E+00
  -2.6546618E+01  -2.8297081E+00   2.5395875E+00
  -2.7557487E+01  -3.0571961E+00   2.1540065E+00
  -2.8620861E+01  -3.3202109E+00   1.7048712E+00
  -2.9739582E+01  -3.6262066E+00   1.1842024E+00
  -3.0916386E+01  -3.9845004E+00   5.8269292E-01
  -3.2153713E+01  -4.4067416E+00  -1.1069065E-01
  -3.3453354E+01  -4.9074497E+00  -9.0927815E-01
  -3.4815788E+01  -5.5046129E+00  -1.8294837E+00
  -3.6238873E+01  -6.2202253E+00  -2.8917913E+00
  -3.7715683E+01  -7.0806570E+00  -4.1218138E+00
  -3.9230759E+01  -8.1165152E+00  -5.5510492E+00
  -4.0754658E+01  -9.3616104E+00  -7.2165823E+00
  -4.2236160E+01  -1.0850233E+01  -9.1584225E+00
  -4.3593033E+01  -1.2611878E+01  -1.1412621E+01
  -4.4702866E+01  -1.4662343E+01  -1.3997910E+01
  -4.5398232E+01  -1.6990429E+01  -1.6893965E+01
  -4.5472828E+01  -1.9540852E+01  -2.0011599E+01
  -4.4707283E+01  -2.2196585E+01  -2.3159967E+01
  -4.2921013E+01  -2.4767910E+01  -2.6023428E+01
  -4.0047016E+01  -2.6998816E+01  -2.8167561E+01
  -3.6208832E+01  -2.8600567E+01  -2.9093786E+01
  -3.1760984E+01  -2.9312603E+01  -2.8345062E+01
  -2.7253948E+01  -2.8973927E+01  -2.5633604E+01
  -2.3315189E+01  -2.7574371E+01  -2.0934200E+01
  -2.0486916E+01  -2.5258743E+01  -1.4491055E+01
  -1.2566875E+01  -1.4717815E+01  -4.2644587E+00
   1.3205910E-01   7.4386597E-02   6.1023808E-01
   5.8101654E-02   3.7618637E-02   6.3010025E-01
   8.5830688E-05  -8.0184937E-03   6.2944889E-01
  -4.0071487E-02  -5.5816650E-02   6.1634350E-01
  -6.4170837E-02  -1.0106087E-01   5.9750700E-01
  -7.5715065E-02  -1.4109612E-01   5.7758212E-01
  -7.8472137E-02  -1.7490292E-01   5.5923426E-01
  -1.0515849E+01  -8.1745541E-01   3.0828977E+00
  -1.0866096E+01  -8.3560407E-01   3.1619668E+00
  -1.1225961E+01  -8.5438794E-01   3.2410936E+00
  -1.1595753E+01  -8.7387860E-01   3.3199480E+00
  -1.1975838E+01  -8.9415979E-01   3.3981586E+00
  -1.2366632E+01  -9.1532868E-01   3.4753065E+00
  -1.2768627E+01  -9.3749785E-01   3.5509188E+00
  -1.3182383E+01  -9.6079654E-01   3.6244617E+00
  -1.3608543E+01  -9.8537326E-01   3.6953304E+00
  -1.4047846E+01  -1.0113977E+00   3.7628424E+00
  -1.4501125E+01  -1.0390638E+00   3.8262227E+00
  -1.4969321E+01  -1.0685923E+00   3.8845942E+00
  -1.5453485E+01  -1.1002345E+00   3.9369636E+00
  -1.5954784E+01  -1.1342764E+00   3.9822063E+00
  -1.6474508E+01  -1.1710441E+00   4.0190535E+00
  -1.7014063E+01  -1.2109092E+00   4.0460739E+00
  -1.7574980E+01  -1.2542974E+00   4.0616608E+00
  -1.8158915E+01  -1.3016969E+00   4.0640154E+00
  -1.8767639E+01  -1.3536713E+00   4.0511312E+00
  -1.9403044E+01  -1.4108739E+00   4.0207796E+00
  -2.0067152E+01  -1.4740676E+00   3.9704933E+00
  -2.0762102E+01  -1.5441484E+00   3.8975475E+00
  -2.1490168E+01  -1.6221777E+00   3.7989378E+00
  -2.2253769E+01  -1.7094203E+00   3.6713500E+00
  -2.3055487E+01  -1.8073975E+00   3.5111194E+00
  -2.3898083E+01  -1.9179482E+00   3.3141801E+00
  -2.4784521E+01  -2.0433168E+00   3.0759826E+00
  -2.5717995E+01  -2.1862583E+00   2.7914011E+00
  -2.6701952E+01  -2.3501787E+00   2.4546075E+00
  -2.7740110E+01  -2.5393147E+00   2.0589066E+00
  -2.8836496E+01  -2.7589691E+00   1.5965153E+00
  -2.9995445E+01  -3.0158095E+00   1.0582747E+00
  -3.1221603E+01  -3.3182504E+00   4.3322122E-01