# vtk DataFile Version 3.0
SM polar seed points transformed to GSW coordinates
ASCII
DATASET POLYDATA
POINTS      288 float
       0.910494       0.000000       1.192057
       0.885150       0.194114       1.195337
       0.810844       0.375000       1.204951
       0.692640       0.530330       1.220246
       0.538594       0.649519       1.240178
       0.359204       0.724444       1.263390
       0.166694       0.750000       1.288299
      -0.025815       0.724444       1.313208
      -0.205205       0.649519       1.336419
      -0.359251       0.530330       1.356351
      -0.477455       0.375000       1.371646
      -0.551761       0.194114       1.381260
      -0.577105      -0.000000       1.384540
      -0.551761      -0.194114       1.381260
      -0.477455      -0.375000       1.371646
      -0.359251      -0.530330       1.356351
      -0.205205      -0.649519       1.336419
      -0.025815      -0.724444       1.313208
       0.166694      -0.750000       1.288299
       0.359204      -0.724444       1.263390
       0.538594      -0.649519       1.240178
       0.692640      -0.530330       1.220246
       0.810844      -0.375000       1.204951
       0.885149      -0.194114       1.195337
       0.803135       0.000000       1.266876
       0.781713       0.164072       1.269648
       0.718907       0.316964       1.277774
       0.618997       0.448254       1.290702
       0.488791       0.548997       1.307549
       0.337164       0.612327       1.327168
       0.174448       0.633927       1.348222
       0.011732       0.612327       1.369277
      -0.139895       0.548997       1.388896
      -0.270100       0.448254       1.405743
      -0.370010       0.316964       1.418671
      -0.432816       0.164073       1.426797
      -0.454238      -0.000000       1.429569
      -0.432816      -0.164073       1.426797
      -0.370010      -0.316964       1.418671
      -0.270100      -0.448254       1.405743
      -0.139895      -0.548997       1.388896
       0.011732      -0.612327       1.369277
       0.174448      -0.633927       1.348222
       0.337164      -0.612327       1.327168
       0.488791      -0.548997       1.307549
       0.618997      -0.448254       1.290702
       0.718907      -0.316964       1.277774
       0.781713      -0.164073       1.269648
       0.689663       0.000000       1.332053
       0.672326       0.132782       1.334296
       0.621498       0.256515       1.340873
       0.540642       0.362767       1.351335
       0.435269       0.444297       1.364969
       0.312558       0.495549       1.380847
       0.180874       0.513030       1.397886
       0.049190       0.495549       1.414925
      -0.073520       0.444297       1.430802
      -0.178894       0.362767       1.444437
      -0.259750       0.256515       1.454899
      -0.310578       0.132782       1.461475
      -0.327915      -0.000000       1.463719
      -0.310578      -0.132782       1.461475
      -0.259750      -0.256515       1.454899
      -0.178894      -0.362767       1.444437
      -0.073520      -0.444297       1.430802
       0.049190      -0.495549       1.414925
       0.180874      -0.513030       1.397886
       0.312558      -0.495549       1.380847
       0.435268      -0.444297       1.364969
       0.540642      -0.362767       1.351335
       0.621498      -0.256515       1.340873
       0.672326      -0.132782       1.334296
       0.570942       0.000000       1.387092
       0.557823       0.100481       1.388790
       0.519360       0.194114       1.393767
       0.458173       0.274519       1.401684
       0.378433       0.336216       1.412001
       0.285574       0.375000       1.424016
       0.185924       0.388229       1.436910
       0.086273       0.375000       1.449804
      -0.006586       0.336216       1.461819
      -0.086326       0.274519       1.472137
      -0.147513       0.194114       1.480054
      -0.185976       0.100481       1.485031
      -0.199095      -0.000000       1.486728
      -0.185976      -0.100481       1.485031
      -0.147513      -0.194114       1.480054
      -0.086326      -0.274519       1.472137
      -0.006586      -0.336216       1.461819
       0.086273      -0.375000       1.449804
       0.185924      -0.388229       1.436910
       0.285574      -0.375000       1.424016
       0.378433      -0.336216       1.412001
       0.458173      -0.274519       1.401684
       0.519360      -0.194114       1.393767
       0.557823      -0.100481       1.388790
       0.447877       0.000000       1.431575
       0.439075       0.067415       1.432714
       0.413269       0.130236       1.436053
       0.372217       0.184182       1.441365
       0.318717       0.225576       1.448287
       0.256416       0.251597       1.456348
       0.189558       0.260472       1.464999
       0.122700       0.251597       1.473650
       0.060398       0.225576       1.481711
       0.006899       0.184182       1.488633
      -0.034153       0.130236       1.493945
      -0.059959       0.067415       1.497284
      -0.068761      -0.000000       1.498423
      -0.059959      -0.067415       1.497284
      -0.034153      -0.130236       1.493945
       0.006899      -0.184182       1.488633
       0.060399      -0.225576       1.481711
       0.122700      -0.251597       1.473650
       0.189558      -0.260472       1.464999
       0.256416      -0.251597       1.456348
       0.318717      -0.225576       1.448287
       0.372217      -0.184182       1.441365
       0.413269      -0.130236       1.436053
       0.439075      -0.067415       1.432714
       0.321403       0.000000       1.465162
       0.316985       0.033836       1.465734
       0.304032       0.065367       1.467410
       0.283428       0.092443       1.470076
       0.256576       0.113219       1.473550
       0.225306       0.126279       1.477596
       0.191750       0.130734       1.481938
       0.158193       0.126279       1.486280
       0.126923       0.113219       1.490326
       0.100071       0.092443       1.493801
       0.079467       0.065367       1.496467
       0.066515       0.033836       1.498142
       0.062097      -0.000000       1.498714
       0.066515      -0.033836       1.498142
       0.079467      -0.065367       1.496467
       0.100071      -0.092443       1.493801
       0.126923      -0.113219       1.490326
       0.158193      -0.126279       1.486280
       0.191750      -0.130734       1.481938
       0.225306      -0.126279       1.477596
       0.256576      -0.113219       1.473550
       0.283428      -0.092443       1.470076
       0.304032      -0.065367       1.467410
       0.316985      -0.033836       1.465734
       0.577105       0.000000      -1.384540
       0.551761       0.194114      -1.381260
       0.477455       0.375000      -1.371646
       0.359251       0.530330      -1.356351
       0.205205       0.649519      -1.336419
       0.025815       0.724444      -1.313208
      -0.166694       0.750000      -1.288299
      -0.359204       0.724444      -1.263390
      -0.538594       0.649519      -1.240178
      -0.692640       0.530330      -1.220246
      -0.810844       0.375000      -1.204951
      -0.885149       0.194114      -1.195337
      -0.910494      -0.000000      -1.192057
      -0.885150      -0.194114      -1.195337
      -0.810844      -0.375000      -1.204951
      -0.692640      -0.530330      -1.220246
      -0.538594      -0.649519      -1.240178
      -0.359204      -0.724444      -1.263390
      -0.166694      -0.750000      -1.288299
       0.025815      -0.724444      -1.313208
       0.205205      -0.649519      -1.336419
       0.359251      -0.530330      -1.356351
       0.477455      -0.375000      -1.371646
       0.551761      -0.194114      -1.381260
       0.454238       0.000000      -1.429569
       0.432816       0.164072      -1.426797
       0.370010       0.316964      -1.418671
       0.270100       0.448254      -1.405743
       0.139895       0.548997      -1.388896
      -0.011732       0.612327      -1.369277
      -0.174448       0.633927      -1.348222
      -0.337164       0.612327      -1.327168
      -0.488791       0.548997      -1.307549
      -0.618997       0.448254      -1.290702
      -0.718907       0.316964      -1.277774
      -0.781713       0.164073      -1.269648
      -0.803135      -0.000000      -1.266876
      -0.781713      -0.164073      -1.269648
      -0.718907      -0.316964      -1.277774
      -0.618997      -0.448254      -1.290702
      -0.488791      -0.548997      -1.307549
      -0.337164      -0.612327      -1.327168
      -0.174448      -0.633927      -1.348222
      -0.011732      -0.612327      -1.369277
       0.139895      -0.548997      -1.388896
       0.270100      -0.448254      -1.405743
       0.370010      -0.316964      -1.418671
       0.432816      -0.164073      -1.426797
       0.327915       0.000000      -1.463719
       0.310578       0.132782      -1.461475
       0.259750       0.256515      -1.454899
       0.178894       0.362767      -1.444437
       0.073520       0.444297      -1.430802
      -0.049190       0.495549      -1.414925
      -0.180874       0.513030      -1.397886
      -0.312558       0.495549      -1.380847
      -0.435269       0.444297      -1.364969
      -0.540642       0.362767      -1.351335
      -0.621498       0.256515      -1.340873
      -0.672326       0.132782      -1.334296
      -0.689663      -0.000000      -1.332053
      -0.672326      -0.132782      -1.334296
      -0.621498      -0.256515      -1.340873
      -0.540642      -0.362767      -1.351335
      -0.435268      -0.444297      -1.364969
      -0.312558      -0.495549      -1.380847
      -0.180874      -0.513030      -1.397886
      -0.049190      -0.495549      -1.414925
       0.073520      -0.444297      -1.430802
       0.178894      -0.362767      -1.444437
       0.259750      -0.256515      -1.454899
       0.310578      -0.132782      -1.461475
       0.199095       0.000000      -1.486728
       0.185976       0.100481      -1.485031
       0.147513       0.194114      -1.480054
       0.086326       0.274519      -1.472137
       0.006586       0.336216      -1.461819
      -0.086273       0.375000      -1.449804
      -0.185924       0.388229      -1.436910
      -0.285574       0.375000      -1.424016
      -0.378433       0.336216      -1.412001
      -0.458173       0.274519      -1.401684
      -0.519360       0.194114      -1.393767
      -0.557823       0.100481      -1.388790
      -0.570942      -0.000000      -1.387092
      -0.557823      -0.100481      -1.388790
      -0.519360      -0.194114      -1.393767
      -0.458173      -0.274519      -1.401684
      -0.378433      -0.336216      -1.412001
      -0.285574      -0.375000      -1.424016
      -0.185924      -0.388229      -1.436910
      -0.086273      -0.375000      -1.449804
       0.006586      -0.336216      -1.461819
       0.086326      -0.274519      -1.472137
       0.147513      -0.194114      -1.480054
       0.185976      -0.100481      -1.485031
       0.068761       0.000000      -1.498423
       0.059959       0.067415      -1.497284
       0.034153       0.130236      -1.493945
      -0.006899       0.184182      -1.488633
      -0.060398       0.225576      -1.481711
      -0.122700       0.251597      -1.473650
      -0.189558       0.260472      -1.464999
      -0.256416       0.251597      -1.456348
      -0.318717       0.225576      -1.448287
      -0.372217       0.184182      -1.441365
      -0.413269       0.130236      -1.436053
      -0.439075       0.067415      -1.432714
      -0.447877      -0.000000      -1.431575
      -0.439075      -0.067415      -1.432714
      -0.413269      -0.130236      -1.436053
      -0.372217      -0.184182      -1.441365
      -0.318717      -0.225576      -1.448287
      -0.256416      -0.251597      -1.456348
      -0.189558      -0.260472      -1.464999
      -0.122700      -0.251597      -1.473650
      -0.060398      -0.225576      -1.481711
      -0.006899      -0.184182      -1.488633
       0.034153      -0.130236      -1.493945
       0.059959      -0.067415      -1.497284
      -0.062097       0.000000      -1.498714
      -0.066515       0.033836      -1.498142
      -0.079467       0.065367      -1.496467
      -0.100071       0.092443      -1.493801
      -0.126923       0.113219      -1.490326
      -0.158193       0.126279      -1.486280
      -0.191750       0.130734      -1.481938
      -0.225306       0.126279      -1.477596
      -0.256576       0.113219      -1.473550
      -0.283428       0.092443      -1.470076
      -0.304032       0.065367      -1.467410
      -0.316985       0.033836      -1.465734
      -0.321403      -0.000000      -1.465162
      -0.316985      -0.033836      -1.465734
      -0.304032      -0.065367      -1.467410
      -0.283428      -0.092443      -1.470076
      -0.256576      -0.113219      -1.473550
      -0.225306      -0.126279      -1.477596
      -0.191750      -0.130734      -1.481938
      -0.158193      -0.126279      -1.486280
      -0.126923      -0.113219      -1.490326
      -0.100071      -0.092443      -1.493801
      -0.079467      -0.065367      -1.496467
      -0.066515      -0.033836      -1.498142
VERTICES      288     576
 1        0
 1        1
 1        2
 1        3
 1        4
 1        5
 1        6
 1        7
 1        8
 1        9
 1       10
 1       11
 1       12
 1       13
 1       14
 1       15
 1       16
 1       17
 1       18
 1       19
 1       20
 1       21
 1       22
 1       23
 1       24
 1       25
 1       26
 1       27
 1       28
 1       29
 1       30
 1       31
 1       32
 1       33
 1       34
 1       35
 1       36
 1       37
 1       38
 1       39
 1       40
 1       41
 1       42
 1       43
 1       44
 1       45
 1       46
 1       47
 1       48
 1       49
 1       50
 1       51
 1       52
 1       53
 1       54
 1       55
 1       56
 1       57
 1       58
 1       59
 1       60
 1       61
 1       62
 1       63
 1       64
 1       65
 1       66
 1       67
 1       68
 1       69
 1       70
 1       71
 1       72
 1       73
 1       74
 1       75
 1       76
 1       77
 1       78
 1       79
 1       80
 1       81
 1       82
 1       83
 1       84
 1       85
 1       86
 1       87
 1       88
 1       89
 1       90
 1       91
 1       92
 1       93
 1       94
 1       95
 1       96
 1       97
 1       98
 1       99
 1      100
 1      101
 1      102
 1      103
 1      104
 1      105
 1      106
 1      107
 1      108
 1      109
 1      110
 1      111
 1      112
 1      113
 1      114
 1      115
 1      116
 1      117
 1      118
 1      119
 1      120
 1      121
 1      122
 1      123
 1      124
 1      125
 1      126
 1      127
 1      128
 1      129
 1      130
 1      131
 1      132
 1      133
 1      134
 1      135
 1      136
 1      137
 1      138
 1      139
 1      140
 1      141
 1      142
 1      143
 1      144
 1      145
 1      146
 1      147
 1      148
 1      149
 1      150
 1      151
 1      152
 1      153
 1      154
 1      155
 1      156
 1      157
 1      158
 1      159
 1      160
 1      161
 1      162
 1      163
 1      164
 1      165
 1      166
 1      167
 1      168
 1      169
 1      170
 1      171
 1      172
 1      173
 1      174
 1      175
 1      176
 1      177
 1      178
 1      179
 1      180
 1      181
 1      182
 1      183
 1      184
 1      185
 1      186
 1      187
 1      188
 1      189
 1      190
 1      191
 1      192
 1      193
 1      194
 1      195
 1      196
 1      197
 1      198
 1      199
 1      200
 1      201
 1      202
 1      203
 1      204
 1      205
 1      206
 1      207
 1      208
 1      209
 1      210
 1      211
 1      212
 1      213
 1      214
 1      215
 1      216
 1      217
 1      218
 1      219
 1      220
 1      221
 1      222
 1      223
 1      224
 1      225
 1      226
 1      227
 1      228
 1      229
 1      230
 1      231
 1      232
 1      233
 1      234
 1      235
 1      236
 1      237
 1      238
 1      239
 1      240
 1      241
 1      242
 1      243
 1      244
 1      245
 1      246
 1      247
 1      248
 1      249
 1      250
 1      251
 1      252
 1      253
 1      254
 1      255
 1      256
 1      257
 1      258
 1      259
 1      260
 1      261
 1      262
 1      263
 1      264
 1      265
 1      266
 1      267
 1      268
 1      269
 1      270
 1      271
 1      272
 1      273
 1      274
 1      275
 1      276
 1      277
 1      278
 1      279
 1      280
 1      281
 1      282
 1      283
 1      284
 1      285
 1      286
 1      287
POINT_DATA      288
SCALARS hemisphere int 1
LOOKUP_TABLE default
 1
 1
 1
 1
 1
 1
 1
 1
 1
 1
 1
 1
 1
 1
 1
 1
 1
 1
 1
 1
 1
 1
 1
 1
 1
 1
 1
 1
 1
 1
 1
 1
 1
 1
 1
 1
 1
 1
 1
 1
 1
 1
 1
 1
 1
 1
 1
 1
 1
 1
 1
 1
 1
 1
 1
 1
 1
 1
 1
 1
 1
 1
 1
 1
 1
 1
 1
 1
 1
 1
 1
 1
 1
 1
 1
 1
 1
 1
 1
 1
 1
 1
 1
 1
 1
 1
 1
 1
 1
 1
 1
 1
 1
 1
 1
 1
 1
 1
 1
 1
 1
 1
 1
 1
 1
 1
 1
 1
 1
 1
 1
 1
 1
 1
 1
 1
 1
 1
 1
 1
 1
 1
 1
 1
 1
 1
 1
 1
 1
 1
 1
 1
 1
 1
 1
 1
 1
 1
 1
 1
 1
 1
 1
 1
-1
-1
-1
-1
-1
-1
-1
-1
-1
-1
-1
-1
-1
-1
-1
-1
-1
-1
-1
-1
-1
-1
-1
-1
-1
-1
-1
-1
-1
-1
-1
-1
-1
-1
-1
-1
-1
-1
-1
-1
-1
-1
-1
-1
-1
-1
-1
-1
-1
-1
-1
-1
-1
-1
-1
-1
-1
-1
-1
-1
-1
-1
-1
-1
-1
-1
-1
-1
-1
-1
-1
-1
-1
-1
-1
-1
-1
-1
-1
-1
-1
-1
-1
-1
-1
-1
-1
-1
-1
-1
-1
-1
-1
-1
-1
-1
-1
-1
-1
-1
-1
-1
-1
-1
-1
-1
-1
-1
-1
-1
-1
-1
-1
-1
-1
-1
-1
-1
-1
-1
-1
-1
-1
-1
-1
-1
-1
-1
-1
-1
-1
-1
-1
-1
-1
-1
-1
-1
-1
-1
-1
-1
-1
-1
