<?xml version="1.0"?>
<VTKFile type="StructuredGrid" version="0.1" byte_order="LittleEndian" header_type="UInt32" compressor="vtkZLibDataCompressor">
  <StructuredGrid WholeExtent="0 60 0 20 0 20">
  <Piece Extent="0 60 0 20 0 20">
    <PointData Vectors="B_total">
      <DataArray type="Float32" Name="B_total" NumberOfComponents="3" format="ascii" RangeMin="0" RangeMax="57483.930354834476">
        -9.04303 -1.0737523 3.2822816 -9.358102 -1.1037806 3.366261
        -9.682739 -1.1355191 3.450827 -10.017253 -1.1691754 3.5357614
        -10.362 -1.204986 3.6208215 -10.717388 -1.2432193 3.7057362
        -11.083877 -1.2841799 3.7902026 -11.461993 -1.3282126 3.8738797
        -11.852337 -1.3757069 3.9563823 -12.255586 -1.4271024 4.037273
        -12.672505 -1.4828951 4.116053 -13.103952 -1.5436425 4.1921515
        -13.550885 -1.6099719 4.264915 -14.014358 -1.6825869 4.333589
        -14.495526 -1.7622765 4.39731 -14.995645 -1.8499243 4.4550853
        -15.516056 -1.9465173 4.5057793 -16.058182 -2.0531595 4.548101
        -16.623507 -2.1710815 4.580589 -17.213562 -2.3016565 4.601603
        -17.8299 -2.4464164 4.609318 -18.474064 -2.60707 4.601723
        -19.147566 -2.7855263 4.5766215 -19.85185 -2.983923 4.5316386
        -20.58827 -3.204659 4.464227 -21.358042 -3.4504306 4.371676
        -22.162207 -3.724296 4.2511115 -23.001566 -4.029709 4.0995007
        -23.876595 -4.370595 3.913653 -24.787315 -4.7514205 3.6902318
        -25.73314 -5.1772647 3.4257996 -26.712652 -5.653895 3.1168962
        -27.723362 -6.1878405 2.760192 -28.761457 -6.78646 2.3527167
        -29.821554 -7.457988 1.8921552 -30.896479 -8.211541 1.3771853
        -31.977097 -9.057053 0.8078127 -33.0521 -10.00502 0.1856426
        -34.10777 -11.06601 -0.48593998 -35.12751 -12.249689 -1.2016422
        -36.091263 -13.563217 -1.9540571 -36.974773 -15.008844 -2.7330883
        -37.74923 -16.580591 -3.5247147 -38.382023 -18.260338 -4.3088675
        -38.839584 -20.013834 -5.056638 -39.09327 -21.78796 -5.727566
        -39.12822 -23.510605 -6.2683587 -38.9541 -25.094782 -6.6145773
        -38.61483 -26.447697 -6.696211 -38.19365 -27.483892 -6.4468575
        -37.810555 -28.139862 -5.8146124 -0.08627799 -0.16768551 0.5185089
        -0.0920949 -0.19549656 0.5088453 -0.09115386 -0.22392464 0.4994955
        -0.08444834 -0.25046825 0.49162102 -0.07365847 -0.27334213 0.48593783
        -0.060689926 -0.29160023 0.48265553 -0.04724741 -0.30510902 0.48156905
        -0.03461504 -0.31428146 0.48222136 -0.023571968 -0.31985664 0.48406327
        -0.014471531 -0.32266235 0.48657638 -9.0943575 -1.0045581 3.291828
        -9.412 -1.0324074 3.3748722 -9.739442 -1.0618713 3.458385
        -10.077025 -1.0931432 3.5421433 -10.42514 -1.1264436 3.6258996
        -10.784229 -1.1620225 3.709378 -11.154794 -1.2001637 3.7922702
        -11.53741 -1.2411888 3.8742285 -11.932727 -1.2854608 3.95486
        -12.341482 -1.333391 4.0337186 -12.764509 -1.3854427 4.1102943
        -13.202738 -1.4421388 4.184002 -13.657207 -1.5040683 4.2541676
        -14.129066 -1.5718935 4.320015 -14.619576 -1.646359 4.3806496
        -15.130104 -1.7283018 4.4350405 -15.662123 -1.8186603 4.482005
        -16.217197 -1.9184872 4.520193 -16.796972 -2.0289629 4.5480714
        -17.403158 -2.1514103 4.563912 -18.037502 -2.287314 4.565786
        -18.701777 -2.4383414 4.5515537 -19.397741 -2.6063685 4.5188694
        -20.127132 -2.793513 4.4651775 -20.89163 -3.0021732 4.3877163
        -21.692822 -3.2350729 4.2835116 -22.532194 -3.4953334 4.149376
        -23.411045 -3.7865248 3.9818878 -24.33043 -4.112758 3.7773814
        -25.291025 -4.4787807 3.5319338 -26.292984 -4.890079 3.2413812
        -27.335718 -5.3529983 2.9013777 -28.417639 -5.874877 2.5075107
        -29.535904 -6.4641843 2.0554914 -30.686132 -7.1306624 1.5413896
        -31.862148 -7.885451 0.9619154 -33.055656 -8.741125 0.3146466
        -34.25586 -9.7115965 -0.40180635 -35.4488 -10.811661 -1.1877103
        -36.61634 -12.056028 -2.0421023 -37.734726 -13.457495 -2.9624033
        -38.77282 -15.023994 -3.9433177 -39.69071 -16.754307 -4.974534
        -40.439796 -18.632591 -6.036915 -40.966003 -20.62244 -7.0974436
        -41.217594 -22.66199 -8.104166 -41.15803 -24.662212 -8.9832325
        -40.782467 -26.511074 -9.640644 -40.133556 -28.085037 -9.97065
        -39.310734 -29.26735 -9.870449 -38.46741 -29.969456 -9.25832
        -37.794044 -30.149157 -8.089428 -0.12516928 -0.17618942 0.53424597
        -0.12314034 -0.21361923 0.5168395 -0.1127367 -0.2478838 0.50187826
        -0.096707344 -0.27658653 0.49066448 -0.07800865 -0.29867458 0.4835453
        -0.059170246 -0.31422043 0.4801476 -0.04197502 -0.3240471 0.47967768
        -0.027383804 -0.3293414 0.4812014 -0.015723228 -0.33132267 0.48387778
        -9.14444 -0.9325038 3.3023946 -9.464547 -0.95789444 3.38462
        -9.794673 -0.984779 3.4672043 -10.135184 -1.0133349 3.54992
        -10.486503 -1.0437639 3.6325145 -10.849103 -1.0762951 3.714707
        -11.223527 -1.1111887 3.7961826 -11.610392 -1.148739 3.876588
        -12.010399 -1.1892799 3.9555228 -12.424337 -1.2331887 4.0325303
        -12.853103 -1.2808919 4.107089 -13.297695 -1.3328711 4.1785984
        -13.759233 -1.3896704 4.2463655 -14.238954 -1.4519026 4.309591
        -14.738214 -1.5202589 4.3673477 -15.258494 -1.5955175 4.418568
        -15.801391 -1.6785554 4.462022 -16.368608 -1.7703586 4.496299
        -16.961948 -1.8720381 4.5197945 -17.583294 -1.9848455 4.530694
        -18.234596 -2.1101916 4.5269613 -18.917849 -2.249671 4.506332
        -19.63507 -2.4050906 4.4663076 -20.388298 -2.5785043 4.404151
        -21.179548 -2.772254 4.3168797 -22.010826 -2.9890378 4.201256
        -22.884079 -3.2319574 4.0537624 -23.801165 -3.5046134 3.870576
        -24.76379 -3.8111992 3.6475272 -25.773392 -4.1566186 3.3800673
        -26.831009 -4.546625 3.0632534 -27.937069 -4.9879837 2.6917605
        -29.091156 -5.488664 2.259958 -30.291758 -6.0580616 1.7620312
        -31.535978 -6.7072487 1.192135 -32.819237 -7.4492297 0.5445401
        -34.13486 -8.299156 -0.18629324 -35.47347 -9.274394 -1.0057478
        -36.821865 -10.394249 -1.919164 -38.16132 -11.679092 -2.931849
        -39.46502 -13.148442 -4.048571 -40.69486 -14.817587 -5.271883
        -41.79843 -16.69232 -6.5984964 -42.707806 -18.761772 -8.01316
        -43.34254 -20.989952 -9.480326 -43.619522 -23.30788 -10.935293
        -43.47085 -25.609272 -12.278135 -42.86837 -27.753838 -13.374701
        -41.84883 -29.581205 -14.068505 -40.53041 -30.935757 -14.203977
        -39.110744 -31.697205 -13.656226 -37.842155 -31.807693 -12.357886
        -32.46245 -27.458294 -8.974339 -0.16425991 -0.20890045 0.54093075
        -0.14815044 -0.25167656 0.51528645 -0.12452507 -0.2862959 0.4959693
        -0.097901344 -0.31170464 0.48346186 -0.0719471 -0.32842445 0.47703362
        -0.048995018 -0.33792686 0.47525907 -0.030158997 -0.34198952 0.47659826
        -0.015620232 -0.34231615 0.4797088 -9.192102 -0.8579375 3.3137858
        -9.51452 -0.8806222 3.3953164 -9.847152 -0.9046581 3.4771068
        -10.190392 -0.93020433 3.558925 -10.544689 -0.95744205 3.6405134
        -10.91055 -0.98657715 3.7215862 -11.288548 -1.017843 3.8018231
        -11.679342 -1.0515046 3.880864 -12.083676 -1.0878617 3.9583006
        -12.502393 -1.1272542 4.0336666 -12.936441 -1.170067 4.10643
        -13.386889 -1.2167349 4.1759744 -13.854924 -1.2677497 4.241589
        -14.341866 -1.3236674 4.302449 -14.849165 -1.3851162 4.3576007
        -15.378404 -1.452805 4.4059362 -15.931295 -1.5275353 4.446181
        -16.509678 -1.6102116 4.476867 -17.1155 -1.7018567 4.4963217
        -17.750818 -1.8036276 4.5026445 -18.41777 -1.916835 4.493697
        -19.118578 -2.0429688 4.4670944 -19.855513 -2.183726 4.420188
        -20.63091 -2.3410504 4.350064 -21.447138 -2.5171745 4.2535214
        -22.306618 -2.7146895 4.1270604 -23.211788 -2.9366026 3.9668355
        -24.165102 -3.1864386 3.7686176 -25.16896 -3.4683456 3.527724
        -26.225649 -3.7872326 3.2389612 -27.3372 -4.1489353 2.8965673
        -28.505224 -4.560416 2.4941804 -29.73072 -5.030015 2.0248477
        -31.013836 -5.567752 1.4810615 -32.35363 -6.185684 0.85477984
        -33.74775 -6.8983126 0.13739955 -35.191982 -7.7229905 -0.6804191
        -36.679394 -8.680216 -1.6090919 -38.198803 -9.793626 -2.6605725
        -39.732227 -11.089336 -3.8486364 -41.25099 -12.594145 -5.188404
        -42.710632 -14.331914 -6.6941376 -44.045567 -16.317533 -8.374089
        -45.16564 -18.548018 -10.221434 -45.958103 -20.99129 -12.20134
        -46.298965 -23.5744 -14.236357 -46.076904 -26.175503 -16.194807
        -45.228508 -28.624924 -17.889414 -43.77737 -30.721136 -19.093182
        -41.862213 -32.262943 -19.574787 -39.737785 -33.091946 -19.146685
        -37.7397 -33.131393 -17.709873 -36.22078 -32.40567 -15.276473
        -10.716176 -9.391181 -3.1601696 -0.19057178 -0.26612663 0.53027534
        -0.15633297 -0.3055706 0.49993706 -0.1192112 -0.3327427 0.48056412
        -0.08426094 -0.34893513 0.4706416 -0.054434776 -0.35651112 0.4677353
        -0.03083992 -0.3579855 0.46935534 -0.013321877 -0.3555932 0.4734416
        -9.236157 -0.78115946 3.3255486 -9.560678 -0.8009239 3.4065092
        -9.895588 -0.8218776 3.4876416 -10.241306 -0.84415984 3.56871
        -10.598301 -0.86792946 3.6494527 -10.967108 -0.89336646 3.7295794
        -11.348333 -0.92067546 3.8087637 -11.74267 -0.9500886 3.88664
        -12.1509 -0.9818693 3.9627924 -12.573913 -1.0163159 4.0367465
        -13.012709 -1.0537666 4.1079583 -13.468412 -1.0946046 4.175798
        -13.942278 -1.139264 4.2395372 -14.435698 -1.1882356 4.2983303
        -14.950206 -1.242076 4.351193 -15.487479 -1.301415 4.3969865
        -16.049341 -1.3669653 4.4343905 -16.637747 -1.4395351 4.461886
        -17.254787 -1.5200405 4.477734 -17.902674 -1.6095222 4.4799566
        -18.583733 -1.7091644 4.4663215 -19.300386 -1.8203188 4.434325
        -20.05516 -1.9445345 4.381183 -20.850676 -2.0835953 4.303811
        -21.689648 -2.2395637 4.198805 -22.574907 -2.4148514 4.062409
        -23.50939 -2.6122792 3.8904645 -24.496141 -2.8351805 3.6783438
        -25.538298 -3.087516 3.4208612 -26.639017 -3.3740232 3.1121821
        -27.801405 -3.700397 2.7457223 -29.028376 -4.073523 2.3140578
        -30.32251 -4.501769 1.8088611 -31.685894 -4.9953547 1.2208151
        -33.119934 -5.5668077 0.53948355 -34.62508 -6.231508 -0.2469635
        -36.20037 -7.008284 -1.1522523 -37.842396 -7.9199667 -2.192784
        -39.543343 -8.993695 -3.3886006 -41.287605 -10.260614 -4.764172
        -43.046356 -11.754372 -6.348199 -44.770176 -13.507602 -8.171045
        -46.38065 -15.545437 -10.258032 -47.76362 -17.87525 -12.616875
        -48.768684 -20.472576 -15.218781 -49.221313 -23.265297 -17.975498
        -48.953068 -26.12051 -20.718918 -47.85055 -28.842073 -23.19439
        -45.913803 -31.187271 -25.080254 -43.302406 -32.90663 -26.039827
        -40.342396 -33.799973 -25.796812 -37.47779 -33.76978 -24.207924
        -35.176754 -32.84852 -21.30033 -33.82818 -31.186607 -17.255322
        -0.23834991 -0.29603577 0.5430927 -0.18997383 -0.33740425 0.4990635
        -0.13964558 -0.36336136 0.4719324 -0.094049454 -0.3763361 0.4587803
        -0.056577682 -0.37976265 0.45554972 -0.028105736 -0.37697124 0.45842648
        -0.007863045 -0.3706746 0.46439195 -9.2754755 -0.7024432 3.337081
        -9.60185 -0.71910584 3.417589 -9.938766 -0.73677975 3.498194
        -10.286659 -0.755583 3.578657 -10.64602 -0.7756501 3.6587117
        -11.017408 -0.79713374 3.7380638 -11.401457 -0.82020766 3.8163826
        -11.798888 -0.8450688 3.8932967 -12.210522 -0.8719409 3.968384
        -12.637281 -0.9010776 4.0411625 -13.080215 -0.93276703 4.1110773
        -13.540499 -0.96733564 4.177487 -14.01944 -1.0051539 4.2396474
        -14.518499 -1.0466417 4.296693 -15.039284 -1.0922757 4.347616
        -15.583553 -1.1425964 4.391245 -16.153227 -1.1982174 4.426223
        -16.750368 -1.259836 4.4509835 -17.377193 -1.3282448 4.463729
        -18.036057 -1.4043474 4.4624124 -18.729446 -1.4891759 4.4447136
        -19.459982 -1.5839136 4.4080286 -20.230417 -1.6899225 4.349446
        -21.04364 -1.808779 4.265729 -21.902683 -1.9423167 4.1532845
        -22.810778 -2.0926921 4.0081253 -23.771332 -2.262446 3.8258002
        -24.78797 -2.4546015 3.6013098 -25.86454 -2.672783 3.328997
        -27.005075 -2.92136 3.0024145 -28.213772 -3.2056425 2.614184
        -29.494877 -3.5321202 2.155847 -30.852655 -3.9087837 1.6177095
        -32.291286 -4.345527 0.9886223 -33.81478 -4.8546753 0.2556672
        -35.42683 -5.4516263 -0.5964112 -37.130325 -6.1556025 -1.5861064
        -38.9263 -6.9904337 -2.7364824 -40.811592 -7.985178 -4.07684
        -42.774616 -9.17424 -5.6442237 -44.78843 -10.596343 -7.483839
        -46.80072 -12.291411 -9.646443 -48.721806 -14.294188 -12.180257
        -50.41326 -16.62317 -15.114639 -51.683643 -19.264645 -18.433933
        -52.2996 -22.15282 -22.043507 -52.022217 -25.1516 -25.736532
        -50.67206 -28.047123 -29.177692 -48.212852 -30.563492 -31.924984
        -44.82305 -32.40856 -33.502575 -40.913486 -33.34348 -33.514412
        -37.062664 -33.251255 -31.757545 -33.88259 -32.172607 -28.281645
        -31.870197 -30.290215 -23.36279 -23.491087 -20.933893 -12.882175
        -0.22150612 -0.38344002 0.48804283 -0.15572548 -0.40368938 0.45369816
        -0.0984869 -0.40989017 0.43880844 -0.053337097 -0.4066038 0.43702984
        -0.02051258 -0.39779568 0.44279432 0.0016698837 -0.38648844 0.4519825
        -9.309053 -0.6220583 3.3477342 -9.6369915 -0.6354697 3.4278972
        -9.9756 -0.64970124 3.508096 -10.325326 -0.66484874 3.588088
        -10.68668 -0.6810211 3.6676047 -11.060239 -0.6983421 3.746347
        -11.44666 -0.7169527 3.8239813 -11.846688 -0.73701257 3.9001312
        -12.261175 -0.7587036 3.974369 -12.691076 -0.7822321 4.046206
        -13.137478 -0.8078322 4.1150794 -13.601595 -0.8357699 4.180337
        -14.084786 -0.86634743 4.2412214 -14.588566 -0.89990795 4.2968507
        -15.114602 -0.9368413 4.3461957 -15.66473 -0.9775906 4.388059
        -16.240944 -1.0226599 4.4210515 -16.845407 -1.072623 4.443566
        -17.480438 -1.1281345 4.453756 -18.148514 -1.1899422 4.449514
        -18.852266 -1.2589034 4.428448 -19.59449 -1.3360041 4.3878636
        -20.378128 -1.4223841 4.324743 -21.206314 -1.5193685 4.2357163
        -22.08237 -1.628506 4.1170273 -23.009876 -1.751627 3.9644842
        -23.99267 -1.890901 3.7733784 -25.034914 -2.0489266 3.538383
        -26.141108 -2.2288377 3.2534146 -27.316118 -2.4344456 2.911478
        -28.565151 -2.6704175 2.5044682 -29.893774 -2.942514 2.0229728
        -31.307888 -3.257901 1.4560096 -32.81377 -3.6255608 0.7906879
        -34.418118 -4.056827 0.011671901 -36.12799 -4.566071 -0.8996879
        -37.950485 -5.1715226 -1.9667137 -39.8916 -5.896201 -3.2193706
        -41.95374 -6.768776 -4.6967344 -44.130707 -7.8240595 -6.4495006
        -46.399315 -9.102516 -8.541268 -48.70678 -10.647817 -11.04635
        -50.95462 -12.501091 -14.040691 -52.981983 -14.690149 -17.581867
        -54.555862 -17.212814 -21.674969 -55.37954 -20.014795 -26.225512
        -55.13378 -22.967287 -30.989262 -53.559315 -25.854586 -35.541588
        -50.57058 -28.386675 -39.298553 -46.36046 -30.247551 -41.61386
        -41.434074 -31.17412 -41.941483 -36.525887 -31.036919 -40.003582
        -32.41528 -29.882818 -35.879814 -29.721718 -27.916069 -29.967644
        -28.773436 -25.428844 -22.837193 -0.24523354 -0.44210148 0.46032906
        -0.1630516 -0.45119 0.42172813 -0.09446716 -0.446846 0.40831375
        -0.042705536 -0.43445587 0.41086864 -0.00687027 -0.4183035 0.4218254
        0.015942574 -0.4013424 0.4359274 -9.336047 -0.540289 3.3568997
        -9.665233 -0.5503309 3.4368136 -10.005187 -0.56099176 3.5167158
        -10.356371 -0.57234395 3.5963607 -10.719307 -0.58446985 3.6754775
        -11.094589 -0.5974633 3.753765 -11.482892 -0.61143076 3.830886
        -11.884981 -0.62649345 3.9064603 -12.301728 -0.642789 3.9800565
        -12.734118 -0.6604741 4.0511804 -13.183263 -0.6797265 4.1192617
        -13.650414 -0.70074856 4.183641 -14.13697 -0.72377014 4.24355
        -14.644484 -0.74905294 4.298093 -15.174679 -0.7768944 4.3462253
        -15.729442 -0.80763334 4.3867273 -16.310837 -0.84165573 4.4181848
        -16.921097 -0.879402 4.4389577 -17.56263 -0.9213756 4.4471617
        -18.238014 -0.96815294 4.4406395 -18.950003 -1.020397 4.416941
        -19.701513 -1.0788722 4.3733015 -20.495672 -1.1444658 4.306614
        -21.335793 -1.2182115 4.213402 -22.22546 -1.3013268 4.089777
        -23.168535 -1.3952504 3.9313798 -24.169222 -1.5017004 3.7332883
        -25.232136 -1.6227432 3.4899023 -26.362347 -1.7608869 3.194787
        -27.56543 -1.9191989 2.8404803 -28.847506 -2.1014616 2.4182649
        -30.215284 -2.31238 1.9179027 -31.676163 -2.5578568 1.3272991
        -33.238342 -2.8453596 0.63202035 -34.911007 -3.1844127 -0.18543375
        -36.704437 -3.5872297 -1.1468065 -38.629795 -4.0695086 -2.2799006
        -40.69807 -4.6513515 -3.62118 -42.917435 -5.3582196 -5.219123
        -45.287746 -6.2216454 -7.13781 -47.79081 -7.279189 -9.459314
        -50.375473 -8.572787 -12.282309 -52.93744 -10.144084 -15.71249
        -55.297028 -12.025106 -19.83941 -57.183044 -14.222809 -24.694662
        -58.236843 -16.69751 -30.1907 -58.056686 -19.339329 -36.05133
        -56.29683 -21.952637 -41.76256 -52.813698 -24.264324 -46.589516
        -47.808487 -25.968945 -49.698 -41.881844 -26.80805 -50.373207
        -35.932495 -26.653923 -48.252506 -30.916588 -25.554405 -43.45096
        -27.579737 -23.712513 -36.504707 -26.291672 -21.414055 -28.168097
        -1.7780228 -1.5553532 -0.7039013 -0.15729713 -0.4997673 0.37311935
        -0.07943535 -0.48205376 0.36612892 -0.023347855 -0.45928383 0.37680244
        0.013368607 -0.43546152 0.39564228 0.035006523 -0.41301394 0.41650248
        -9.355797 -0.45744577 3.364067 -9.685888 -0.46403039 3.4438164
        -10.026819 -0.47102532 3.5235198 -10.379061 -0.47847897 3.6029308
        -10.743144 -0.48644632 3.681776 -11.119674 -0.49499014 3.7597525
        -11.509337 -0.5041817 3.836521 -11.912917 -0.5141022 3.9116986
        -12.3313 -0.52484393 3.984851 -12.765488 -0.53651196 4.0554795
        -13.216618 -0.54922575 4.12301 -13.685962 -0.56312144 4.1867766
        -14.174947 -0.5783538 4.2460036 -14.685161 -0.5950992 4.299785
        -15.218359 -0.61355853 4.3470645 -15.776474 -0.6339609 4.3866076
        -16.361614 -0.6565678 4.4169807 -16.976068 -0.6816781 4.436521
        -17.622309 -0.70963436 4.443315 -18.302986 -0.7408294 4.435171
        -19.02094 -0.7757163 4.4095964 -19.779198 -0.8148189 4.363773
        -20.580997 -0.8587472 4.29453 -21.429813 -0.9082142 4.198312
        -22.329403 -0.964062 4.071133 -23.283852 -1.0272902 3.9085083
        -24.297651 -1.0990969 3.7053585 -25.375755 -1.1809299 3.4558787
        -26.523678 -1.2745535 3.153367 -27.747547 -1.382137 2.7900083
        -29.054195 -1.5063691 2.3566153 -30.451252 -1.6506145 1.8423167
        -31.947302 -1.819121 1.2341455 -33.552113 -2.0173013 0.51645607
        -35.276917 -2.2521105 -0.32998443 -37.134674 -2.5325434 -1.329422
        -39.13999 -2.8702672 -2.513323 -41.30819 -3.2803798 -3.9235592
        -43.65258 -3.7822294 -5.616539 -46.178642 -4.400119 -7.667799
        -48.873352 -5.1635056 -10.175559 -51.688293 -6.1060433 -13.260224
        -54.516106 -7.262335 -17.054825 -57.16324 -8.661011 -21.679518
        -59.327522 -10.312691 -27.193214 -60.597446 -12.192499 -33.519672
        -60.497677 -14.21993 -40.35917 -58.60221 -16.244091 -47.120117
        -54.710045 -18.047619 -52.929005 -49.024857 -19.382166 -56.773705
        -42.231754 -20.034716 -57.77648 -35.379784 -19.899927 -55.492607
        -29.58707 -19.018604 -50.072395 -25.712242 -17.55904 -42.187088
        -24.15812 -15.755301 -32.767212 -18.690033 -10.504442 -16.920685
        -0.13575745 -0.5400953 0.3081684 -0.05242157 -0.5085621 0.3134899
        0.004611969 -0.47609138 0.33628178 0.03955078 -0.4457705 0.36555958
        0.058083534 -0.41912818 0.39471912 -9.367835 -0.3738685 3.3688574
        -9.698474 -0.37693787 3.4485176 -10.039995 -0.38020408 3.5281115
        -10.392875 -0.3836911 3.6073918 -10.757649 -0.38742605 3.6860845
        -11.134933 -0.39144 3.763885 -11.525419 -0.39576834 3.8404527
        -11.929897 -0.4004514 3.9154034 -12.349266 -0.40553516 3.9883008
        -12.784539 -0.41107205 4.0586433 -13.236864 -0.41712183 4.1258554
        -13.707531 -0.42375264 4.189266 -14.197982 -0.4310422 4.2480965
        -14.709823 -0.43907925 4.3014336 -15.244833 -0.44796512 4.348214
        -15.804969 -0.45781568 4.387195 -16.392368 -0.46876344 4.4169307
        -17.009356 -0.48096037 4.435745 -17.65844 -0.49458104 4.4417057
        -18.342316 -0.50982654 4.432601 -19.063879 -0.5269294 4.4059114
        -19.82622 -0.5461595 4.358788 -20.632654 -0.5678324 4.288021
        -21.486742 -0.5923189 4.1900053 -22.392366 -0.6200574 4.0606966
        -23.353748 -0.651572 3.895532 -24.375551 -0.6874932 3.6893353
        -25.462955 -0.7285864 3.4361749 -26.621754 -0.7757883 3.1291804
        -27.858429 -0.83025616 2.760319 -29.180277 -0.89343107 2.320105
        -30.595526 -0.96712434 1.7972646 -32.11354 -1.0536338 1.1782719
        -33.745125 -1.155901 0.4466952 -35.502888 -1.2777238 -0.41782415
        -37.401592 -1.4240384 -1.4411832 -39.458202 -1.6012802 -2.657295
        -41.691032 -1.8178265 -4.111657 -44.117043 -2.0844846 -5.86607
        -46.74578 -2.4149332 -8.003954 -49.5682 -2.825913 -10.634778
        -52.538445 -3.3367772 -13.894337 -55.548004 -3.9677892 -17.935387
        -58.394882 -4.736299 -22.900803 -60.756535 -5.6499677 -28.870733
        -62.185165 -6.696759 -35.77965 -62.15336 -7.833064 -43.31395
        -60.17653 -8.974407 -50.828297 -56.00995 -9.996548 -57.348843
        -49.85639 -10.755268 -61.731667 -42.460346 -11.125554 -62.97671
        -34.97958 -11.045876 -60.577282 -28.64962 -10.541483 -54.710606
        -24.409672 -9.710323 -46.149906 -22.68403 -8.688187 -35.957085
        -23.391575 -7.606968 -25.138481 -0.09897995 -0.56172085 0.2320633
        -0.015130997 -0.51923585 0.25491714 0.039157867 -0.48016238 0.29278946
        0.06974602 -0.4461795 0.3340845 0.08346939 -0.4177122 0.37234545
        -9.371881 -0.2899214 3.3710396 -9.7027 -0.289447 3.4506803
        -10.044415 -0.28895366 3.5302484 -10.397504 -0.28844064 3.609496
        -10.762507 -0.28790691 3.688149 -11.140038 -0.28735164 3.765902
        -11.530793 -0.28677392 3.8424149 -11.935566 -0.28617287 3.9173021
        -12.355258 -0.28554767 3.9901268 -12.790887 -0.28489754 4.060388
        -13.243605 -0.28422174 4.127507 -13.714705 -0.28351977 4.1908135
        -14.205636 -0.28279126 4.249525 -14.718012 -0.2820361 4.3027296
        -15.253617 -0.28125456 4.3493595 -15.814418 -0.28044742 4.38817
        -16.402561 -0.27961606 4.4177094 -17.020382 -0.27876264 4.436299
        -17.670403 -0.2778906 4.442001 -18.355337 -0.2770047 4.4325953
        -19.078094 -0.27611145 4.405555 -19.84179 -0.27522016 4.35802
        -20.649763 -0.27434295 4.2867665 -21.505613 -0.2734969 4.188176
        -22.413256 -0.27270243 4.058182 -23.376965 -0.27198878 3.8921952
        -24.401466 -0.27139357 3.6850085 -25.492023 -0.27096602 3.430645
        -26.654526 -0.27077052 3.1221786 -27.895597 -0.27089098 2.7514985
        -29.222694 -0.27143678 2.3090148 -30.644272 -0.2725496 1.7833104
        -32.17 -0.27441448 1.1606611 -33.811058 -0.27727044 0.42434895
        -35.580597 -0.2814276 -0.4463997 -37.49408 -0.28728625 -1.4780965
        -39.569374 -0.2953623 -2.705564 -41.825985 -0.30631584 -4.175684
        -44.282307 -0.3209801 -5.952306 -46.949562 -0.34038335 -8.12189
        -49.820362 -0.36573923 -10.798271 -52.850018 -0.39836815 -14.123291
        -55.929855 -0.4395316 -18.257551 -58.8549 -0.4900827 -23.353102
        -61.294964 -0.5500494 -29.498928 -62.78826 -0.6181834 -36.634426
        -62.78681 -0.69156826 -44.441246 -60.78264 -0.76524794 -52.253418
        -56.513123 -0.83195335 -59.0575 -50.179886 -0.8826866 -63.656567
        -42.550327 -0.9091772 -65.000984 -34.824818 -0.9079174 -62.558662
        -28.285927 -0.8824454 -56.517662 -23.905313 -0.83644134 -47.692352
        -22.115147 -0.77687275 -37.197174 -22.82206 -0.7116879 -26.083845
        -0.05145645 -0.55670553 0.15480804 0.028079987 -0.5092213 0.19770241
        0.07645035 -0.4686005 0.251441 0.10080528 -0.43498686 0.3046894
        0.10874557 -0.40778622 0.3516612 -9.367843 -0.20598245 3.3705359
        -9.69847 -0.20196502 3.4502244 -10.03998 -0.19771297 3.529848
        -10.392847 -0.19320072 3.609159 -10.757608 -0.18839931 3.6878827
        -11.134876 -0.1832759 3.7657156 -11.525345 -0.17779332 3.8423164
        -11.929805 -0.1719095 3.9173017 -12.349153 -0.16557677 3.9902344
        -12.784404 -0.15874116 4.060614 -13.236705 -0.15134156 4.127865
        -13.707345 -0.14330873 4.191315 -14.197766 -0.13456422 4.2501864
        -14.709578 -0.12501913 4.3035665 -15.244554 -0.11457272 4.3503914
        -15.804654 -0.10311061 4.3894196 -16.392015 -0.09050307 4.4192038
        -17.00896 -0.07660258 4.4380693 -17.658 -0.06124123 4.444085
        -18.341835 -0.044227444 4.4350376 -19.063354 -0.025341969 4.408409
        -19.825651 -0.0043328498 4.36135 -20.632046 0.019090934 4.2906523
        -21.486103 0.045266304 4.192711 -22.391705 0.07459141 4.063482
        -23.353085 0.10753239 3.8984013 -24.37491 0.1446453 3.6922934
        -25.462383 0.18659827 3.4392252 -26.62131 0.2342015 3.132326
        -27.858204 0.2884471 2.7635548 -29.180395 0.35056168 2.323419
        -30.596165 0.42207867 1.800628 -32.11496 0.50493604 1.1816306
        -33.747677 0.60161006 0.44995153 -35.507072 0.715299 -0.4148425
        -37.408108 0.8501674 -1.4387639 -39.468 1.0116642 -2.6559134
        -41.705402 1.2069119 -4.112095 -44.1377 1.4451473 -5.8695674
        -46.77496 1.7381315 -8.012468 -49.608677 2.100373 -10.651314
        -52.593452 2.5488398 -13.923397 -55.62095 3.101595 -17.983467
        -58.488605 3.7746296 -22.976784 -60.8721 4.575865 -28.985912
        -62.320152 5.4959106 -35.94686 -62.30018 6.496804 -43.54535
        -60.321648 7.50323 -51.131565 -56.13514 8.403945 -57.722534
        -49.942657 9.070523 -62.161854 -42.493305 9.392222 -63.437393
        -34.954063 9.313348 -61.03576 -28.572372 8.85438 -55.136024
        -24.296604 8.1057625 -46.520325 -22.553122 7.1912665 -36.262268
        -23.258387 6.2289295 -25.378742 -0.00062942505 -0.52308655 0.08881569
        0.071006775 -0.47797942 0.1503563 0.11161423 -0.44152737 0.21788311
        0.12905884 -0.4125626 0.28105068 0.13118553 -0.38975203 0.33503914
        -9.355813 -0.12242948 3.367422 -9.685883 -0.11489903 3.4472284
        -10.02679 -0.10692073 3.526991 -10.379005 -0.09844454 3.6064622
        -10.743061 -0.08941363 3.68537 -11.119559 -0.0797636 3.763411
        -11.509191 -0.06942134 3.840246 -11.912733 -0.058304023 3.9154925
        -12.331075 -0.04631763 3.988716 -12.76522 -0.03335562 4.059418
        -13.216301 -0.019297142 4.127025 -13.685592 -0.004005136 4.1908703
        -14.174521 0.012675905 4.25018 -14.684673 0.030922448 4.3040466
        -15.217806 0.050934818 4.351415 -15.775849 0.07294057 4.391052
        -16.360912 0.09719843 4.4215226 -16.975286 0.12400284 4.441166
        -17.62144 0.1536895 4.448068 -18.302034 0.18664217 4.440038
        -19.0199 0.2233006 4.4145846 -19.77807 0.26417118 4.3688903
        -20.579792 0.3098396 4.2997847 -21.428543 0.36098623 4.2037125
        -22.32809 0.41841346 4.0766907 -23.282534 0.48306495 3.9142332
        -24.296377 0.5560669 3.7112591 -25.374613 0.63877374 3.4619634
        -26.522781 0.7328286 3.1596377 -27.747072 0.84024376 2.7964578
        -29.054386 0.96350604 2.3632195 -30.452454 1.1057196 1.8490216
        -31.95001 1.2707989 1.2408478 -33.55701 1.4637296 0.52296495
        -35.284966 1.6909249 -0.32399476 -37.14719 1.9606922 -1.3244996
        -39.15878 2.2838364 -2.510375 -41.335686 2.674385 -3.9240491
        -43.691998 3.150382 -5.6227956 -46.234123 3.7345943 -7.6834674
        -48.950005 4.454772 -10.20621 -51.792 5.3428717 -13.314122
        -54.652946 6.432138 -17.143791 -57.338127 7.7507443 -21.819576
        -59.542 9.310327 -27.404505 -60.846687 11.088978 -33.82486
        -60.767498 13.011234 -40.77936 -58.867847 14.933254 -47.668243
        -54.938614 16.64669 -53.60195 -49.182278 17.913363 -57.546642
        -42.29249 18.529018 -58.60385 -35.33535 18.39197 -56.31739
        -29.449284 17.540926 -50.840244 -25.50812 16.139137 -42.858776
        -23.919611 14.413027 -33.323757 -18.45832 9.294627 -17.338348
        0.045402527 -0.46607685 0.044937134 0.10746002 -0.4298377 0.11999512
        0.14007568 -0.40230465 0.19671917 0.15118217 -0.38139725 0.26612473
        0.14841175 -0.36540198 0.32437468 -9.336072 -0.039626632 3.361928
        -9.665226 -0.028642561 3.4419274 -10.005145 -0.017002396 3.5219176
        -10.356291 -0.004632058 3.6016533 -10.719187 0.00855254 3.6808634
        -11.094421 0.022646824 3.7592473 -11.482674 0.03775909 3.836468
        -11.884708 0.05401215 3.912145 -12.301395 0.0715453 3.9858472
        -12.73372 0.09051652 4.0570807 -13.182795 0.111105 4.125276
        -13.649867 0.13351396 4.1897736 -14.136338 0.15797395 4.2498055
        -14.643762 0.18474658 4.3044763 -15.173857 0.2141287 4.352741
        -15.728514 0.24645756 4.3933825 -16.309795 0.28211632 4.424985
        -16.919937 0.32154098 4.445911 -17.561346 0.36522835 4.4542756
        -18.2366 0.41374573 4.4479237 -18.948456 0.46774316 4.4244056
        -19.699842 0.527968 4.380957 -20.493885 0.5952842 4.314473
        -21.333908 0.670694 4.221477 -22.223513 0.7553768 4.0980844
        -23.166573 0.85071826 3.9399323 -24.167324 0.95836836 3.7421012
        -25.230421 1.0803066 3.4989853 -26.360987 1.2189286 3.2041445
        -27.564669 1.3771569 2.850101 -28.84769 1.5585914 2.4281154