# vtk DataFile Version 3.0
T01 + IGRF magnetic field in GSW coordinates
ASCII
DATASET STRUCTURED_GRID
DIMENSIONS     61    21    21
POINTS    26901 float
     -50.000000     -10.000000     -10.000000
     -49.000000     -10.000000     -10.000000
     -48.000000     -10.000000     -10.000000
     -47.000000     -10.000000     -10.000000
     -46.000000     -10.000000     -10.000000
     -45.000000     -10.000000     -10.000000
     -44.000000     -10.000000     -10.000000
     -43.000000     -10.000000     -10.000000
     -42.000000     -10.000000     -10.000000
     -41.000000     -10.000000     -10.000000
     -40.000000     -10.000000     -10.000000
     -39.000000     -10.000000     -10.000000
     -38.000000     -10.000000     -10.000000
     -37.000000     -10.000000     -10.000000
     -36.000000     -10.000000     -10.000000
     -35.000000     -10.000000     -10.000000
     -34.000000     -10.000000     -10.000000
     -33.000000     -10.000000     -10.000000
     -32.000000     -10.000000     -10.000000
     -31.000000     -10.000000     -10.000000
     -30.000000     -10.000000     -10.000000
     -29.000000     -10.000000     -10.000000
     -28.000000     -10.000000     -10.000000
     -27.000000     -10.000000     -10.000000
     -26.000000     -10.000000     -10.000000
     -25.000000     -10.000000     -10.000000
     -24.000000     -10.000000     -10.000000
     -23.000000     -10.000000     -10.000000
     -22.000000     -10.000000     -10.000000
     -21.000000     -10.000000     -10.000000
     -20.000000     -10.000000     -10.000000
     -19.000000     -10.000000     -10.000000
     -18.000000     -10.000000     -10.000000
     -17.000000     -10.000000     -10.000000
     -16.000000     -10.000000     -10.000000
     -15.000000     -10.000000     -10.000000
     -14.000000     -10.000000     -10.000000
     -13.000000     -10.000000     -10.000000
     -12.000000     -10.000000     -10.000000
     -11.000000     -10.000000     -10.000000
     -10.000000     -10.000000     -10.000000
      -9.000000     -10.000000     -10.000000
      -8.000000     -10.000000     -10.000000
      -7.000000     -10.000000     -10.000000
      -6.000000     -10.000000     -10.000000
      -5.000000     -10.000000     -10.000000
      -4.000000     -10.000000     -10.000000
      -3.000000     -10.000000     -10.000000
      -2.000000     -10.000000     -10.000000
      -1.000000     -10.000000     -10.000000
       0.000000     -10.000000     -10.000000
       1.000000     -10.000000     -10.000000
       2.000000     -10.000000     -10.000000
       3.000000     -10.000000     -10.000000
       4.000000     -10.000000     -10.000000
       5.000000     -10.000000     -10.000000
       6.000000     -10.000000     -10.000000
       7.000000     -10.000000     -10.000000
       8.000000     -10.000000     -10.000000
       9.000000     -10.000000     -10.000000
      10.000000     -10.000000     -10.000000
     -50.000000      -9.000000     -10.000000
     -49.000000      -9.000000     -10.000000
     -48.000000      -9.000000     -10.000000
     -47.000000      -9.000000     -10.000000
     -46.000000      -9.000000     -10.000000
     -45.000000      -9.000000     -10.000000
     -44.000000      -9.000000     -10.000000
     -43.000000      -9.000000     -10.000000
     -42.000000      -9.000000     -10.000000
     -41.000000      -9.000000     -10.000000
     -40.000000      -9.000000     -10.000000
     -39.000000      -9.000000     -10.000000
     -38.000000      -9.000000     -10.000000
     -37.000000      -9.000000     -10.000000
     -36.000000      -9.000000     -10.000000
     -35.000000      -9.000000     -10.000000
     -34.000000      -9.000000     -10.000000
     -33.000000      -9.000000     -10.000000
     -32.000000      -9.000000     -10.000000
     -31.000000      -9.000000     -10.000000
     -30.000000      -9.000000     -10.000000
     -29.000000      -9.000000     -10.000000
     -28.000000      -9.000000     -10.000000
     -27.000000      -9.000000     -10.000000
     -26.000000      -9.000000     -10.000000
     -25.000000      -9.000000     -10.000000
     -24.000000      -9.000000     -10.000000
     -23.000000      -9.000000     -10.000000
     -22.000000      -9.000000     -10.000000
     -21.000000      -9.000000     -10.000000
     -20.000000      -9.000000     -10.000000
     -19.000000      -9.000000     -10.000000
     -18.000000      -9.000000     -10.000000
     -17.000000      -9.000000     -10.000000
     -16.000000      -9.000000     -10.000000
     -15.000000      -9.000000     -10.000000
     -14.000000      -9.000000     -10.000000
     -13.000000      -9.000000     -10.000000
     -12.000000      -9.000000     -10.000000
     -11.000000      -9.000000     -10.000000
     -10.000000      -9.000000     -10.000000
      -9.000000      -9.000000     -10.000000
      -8.000000      -9.000000     -10.000000
      -7.000000      -9.000000     -10.000000
      -6.000000      -9.000000     -10.000000
      -5.000000      -9.000000     -10.000000
      -4.000000      -9.000000     -10.000000
      -3.000000      -9.000000     -10.000000
      -2.000000      -9.000000     -10.000000
      -1.000000      -9.000000     -10.000000
       0.000000      -9.000000     -10.000000
       1.000000      -9.000000     -10.000000
       2.000000      -9.000000     -10.000000
       3.000000      -9.000000     -10.000000
       4.000000      -9.000000     -10.000000
       5.000000      -9.000000     -10.000000
       6.000000      -9.000000     -10.000000
       7.000000      -9.000000     -10.000000
       8.000000      -9.000000     -10.000000
       9.000000      -9.000000     -10.000000
      10.000000      -9.000000     -10.000000
     -50.000000      -8.000000     -10.000000
     -49.000000      -8.000000     -10.000000
     -48.000000      -8.000000     -10.000000
     -47.000000      -8.000000     -10.000000
     -46.000000      -8.000000     -10.000000
     -45.000000      -8.000000     -10.000000
     -44.000000      -8.000000     -10.000000
     -43.000000      -8.000000     -10.000000
     -42.000000      -8.000000     -10.000000
     -41.000000      -8.000000     -10.000000
     -40.000000      -8.000000     -10.000000
     -39.000000      -8.000000     -10.000000
     -38.000000      -8.000000     -10.000000
     -37.000000      -8.000000     -10.000000
     -36.000000      -8.000000     -10.000000
     -35.000000      -8.000000     -10.000000
     -34.000000      -8.000000     -10.000000
     -33.000000      -8.000000     -10.000000
     -32.000000      -8.000000     -10.000000
     -31.000000      -8.000000     -10.000000
     -30.000000      -8.000000     -10.000000
     -29.000000      -8.000000     -10.000000
     -28.000000      -8.000000     -10.000000
     -27.000000      -8.000000     -10.000000
     -26.000000      -8.000000     -10.000000
     -25.000000      -8.000000     -10.000000
     -24.000000      -8.000000     -10.000000
     -23.000000      -8.000000     -10.000000
     -22.000000      -8.000000     -10.000000
     -21.000000      -8.000000     -10.000000
     -20.000000      -8.000000     -10.000000
     -19.000000      -8.000000     -10.000000
     -18.000000      -8.000000     -10.000000
     -17.000000      -8.000000     -10.000000
     -16.000000      -8.000000     -10.000000
     -15.000000      -8.000000     -10.000000
     -14.000000      -8.000000     -10.000000
     -13.000000      -8.000000     -10.000000
     -12.000000      -8.000000     -10.000000
     -11.000000      -8.000000     -10.000000
     -10.000000      -8.000000     -10.000000
      -9.000000      -8.000000     -10.000000
      -8.000000      -8.000000     -10.000000
      -7.000000      -8.000000     -10.000000
      -6.000000      -8.000000     -10.000000
      -5.000000      -8.000000     -10.000000
      -4.000000      -8.000000     -10.000000
      -3.000000      -8.000000     -10.000000
      -2.000000      -8.000000     -10.000000
      -1.000000      -8.000000     -10.000000
       0.000000      -8.000000     -10.000000
       1.000000      -8.000000     -10.000000
       2.000000      -8.000000     -10.000000
       3.000000      -8.000000     -10.000000
       4.000000      -8.000000     -10.000000
       5.000000      -8.000000     -10.000000
       6.000000      -8.000000     -10.000000
       7.000000      -8.000000     -10.000000
       8.000000      -8.000000     -10.000000
       9.000000      -8.000000     -10.000000
      10.000000      -8.000000     -10.000000
     -50.000000      -7.000000     -10.000000
     -49.000000      -7.000000     -10.000000
     -48.000000      -7.000000     -10.000000
     -47.000000      -7.000000     -10.000000
     -46.000000      -7.000000     -10.000000
     -45.000000      -7.000000     -10.000000
     -44.000000      -7.000000     -10.000000
     -43.000000      -7.000000     -10.000000
     -42.000000      -7.000000     -10.000000
     -41.000000      -7.000000     -10.000000
     -40.000000      -7.000000     -10.000000
     -39.000000      -7.000000     -10.000000
     -38.000000      -7.000000     -10.000000
     -37.000000      -7.000000     -10.000000
     -36.000000      -7.000000     -10.000000
     -35.000000      -7.000000     -10.000000
     -34.000000      -7.000000     -10.000000
     -33.000000      -7.000000     -10.000000
     -32.000000      -7.000000     -10.000000
     -31.000000      -7.000000     -10.000000
     -30.000000      -7.000000     -10.000000
     -29.000000      -7.000000     -10.000000
     -28.000000      -7.000000     -10.000000
     -27.000000      -7.000000     -10.000000
     -26.000000      -7.000000     -10.000000
     -25.000000      -7.000000     -10.000000
[...]
POINT_DATA    26901
VECTORS B_total float
  -9.2039042E+00  -1.1502693E+00   3.2694054E+00
  -9.5224962E+00  -1.1822430E+00   3.3539464E+00
  -9.8505659E+00  -1.2158935E+00   3.4390864E+00
  -1.0188412E+01  -1.2514229E+00   3.5245941E+00
  -1.0536373E+01  -1.2890615E+00   3.6102095E+00
  -1.0894841E+01  -1.3290721E+00   3.6956425E+00
  -1.1264257E+01  -1.3717526E+00   3.7805672E+00
  -1.1645131E+01  -1.4174414E+00   3.8646166E+00
  -1.2038042E+01  -1.4665210E+00   3.9473763E+00
  -1.2443645E+01  -1.5194240E+00   4.0283756E+00
  -1.2862684E+01  -1.5766374E+00   4.1070790E+00
  -1.3295991E+01  -1.6387101E+00   4.1828756E+00
  -1.3744495E+01  -1.7062589E+00   4.2550664E+00
  -1.4209221E+01  -1.7799757E+00   4.3228517E+00
  -1.4691291E+01  -1.8606359E+00   4.3853154E+00
  -1.5191923E+01  -1.9491074E+00   4.4414134E+00
  -1.5712421E+01  -2.0463605E+00   4.4899578E+00
  -1.6254164E+01  -2.1534786E+00   4.5296001E+00
  -1.6818592E+01  -2.2716711E+00   4.5588288E+00
  -1.7407187E+01  -2.4022882E+00   4.5759506E+00
  -1.8021446E+01  -2.5468373E+00   4.5790930E+00
  -1.8662865E+01  -2.7070031E+00   4.5662017E+00
  -1.9332895E+01  -2.8846719E+00   4.5350432E+00
  -2.0032919E+01  -3.0819612E+00   4.4832134E+00
  -2.0764227E+01  -3.3012540E+00   4.4081445E+00
  -2.1527952E+01  -3.5452428E+00   4.3071127E+00
  -2.2325058E+01  -3.8169756E+00   4.1772523E+00
  -2.3156231E+01  -4.1199188E+00   4.0155506E+00
  -2.4021807E+01  -4.4580188E+00   3.8188639E+00
  -2.4921650E+01  -4.8357739E+00   3.5839396E+00
  -2.5854952E+01  -5.2583079E+00   3.3074677E+00
  -2.6820045E+01  -5.7314520E+00   2.9861822E+00
  -2.7814119E+01  -6.2618089E+00   2.6170287E+00
  -2.8832983E+01  -6.8568273E+00   2.1974113E+00
  -2.9870792E+01  -7.5248299E+00   1.7255094E+00
  -3.0919821E+01  -8.2750053E+00   1.2006407E+00
  -3.1970264E+01  -9.1172934E+00   6.2363321E-01
  -3.3010029E+01  -1.0062070E+01  -2.8674603E-03
  -3.4024483E+01  -1.1119547E+01  -6.7415291E-01
  -3.4996090E+01  -1.2298677E+01  -1.3832533E+00
  -3.5903908E+01  -1.3605408E+01  -2.1206584E+00
  -3.6723114E+01  -1.5040116E+01  -2.8736920E+00
  -3.7424969E+01  -1.6594269E+01  -3.6252680E+00
  -3.7977962E+01  -1.8246506E+01  -4.3518801E+00
  -3.8351051E+01  -1.9958921E+01  -5.0210118E+00
  -3.8519783E+01  -2.1674719E+01  -5.5888171E+00
  -3.8475204E+01  -2.3318699E+01  -5.9993329E+00
  -3.8234131E+01  -2.4801971E+01  -6.1866417E+00
  -3.7848110E+01  -2.6031485E+01  -6.0808740E+00
  -3.7407398E+01  -2.6923094E+01  -5.6174364E+00
  -1.9074928E+01  -1.4134089E+01  -2.1270628E+00
  -9.1887951E-02  -9.1605186E-02   6.2906933E-01
  -1.1326241E-01  -1.1392784E-01   6.0667276E-01
  -1.2558699E-01  -1.4096832E-01   5.8184433E-01
  -1.2881565E-01  -1.6976070E-01   5.5719972E-01
  -1.2421656E-01  -1.9767094E-01   5.3487754E-01
  -1.1385107E-01  -2.2277451E-01   5.1625061E-01
  -9.9988461E-02  -2.4401283E-01   5.0187743E-01
  -8.4684849E-02  -2.6104403E-01   4.9166954E-01
  -6.9512844E-02  -2.7409172E-01   4.8510689E-01
  -5.5509567E-02  -2.8368139E-01   4.8146465E-01
  -9.2513466E+00  -1.0737571E+00   3.2728558E+00
  -9.5722446E+00  -1.1033157E+00   3.3562529E+00
  -9.9028406E+00  -1.1344538E+00   3.4401281E+00
  -1.0243464E+01  -1.1673597E+00   3.5242453E+00
  -1.0594487E+01  -1.2022487E+00   3.6083410E+00
  -1.0956333E+01  -1.2393655E+00   3.6921201E+00
  -1.1329489E+01  -1.2789881E+00   3.7752528E+00
  -1.1714508E+01  -1.3214327E+00   3.8573663E+00
  -1.2112020E+01  -1.3670568E+00   3.9380398E+00
  -1.2522741E+01  -1.4162647E+00   4.0167947E+00
  -1.2947475E+01  -1.4695128E+00   4.0930858E+00
  -1.3387128E+01  -1.5273162E+00   4.1662884E+00
  -1.3842706E+01  -1.5902547E+00   4.2356877E+00
  -1.4315324E+01  -1.6589804E+00   4.3004622E+00
  -1.4806206E+01  -1.7342265E+00   4.3596706E+00
  -1.5316676E+01  -1.8168156E+00   4.4122329E+00
  -1.5848163E+01  -1.9076713E+00   4.4569182E+00
  -1.6402182E+01  -2.0078292E+00   4.4923282E+00
  -1.6980328E+01  -2.1184502E+00   4.5168829E+00
  -1.7584248E+01  -2.2408376E+00   4.5288115E+00
  -1.8215639E+01  -2.3764558E+00   4.5261455E+00
  -1.8876205E+01  -2.5269523E+00   4.5067129E+00
  -1.9567650E+01  -2.6941857E+00   4.4681401E+00
  -2.0291641E+01  -2.8802614E+00   4.4078526E+00
  -2.1049786E+01  -3.0875695E+00   4.3230753E+00
  -2.1843597E+01  -3.3188400E+00   4.2108293E+00
  -2.2674467E+01  -3.5771990E+00   4.0679383E+00
  -2.3543589E+01  -3.8662448E+00   3.8910027E+00
  -2.4451876E+01  -4.1901317E+00   3.6763988E+00
  -2.5399843E+01  -4.5536661E+00   3.4202805E+00
  -2.6387434E+01  -4.9624186E+00   3.1186032E+00
  -2.7413805E+01  -5.4228468E+00   2.7671967E+00
  -2.8477057E+01  -5.9424286E+00   2.3618920E+00
  -2.9573988E+01  -6.5298052E+00   1.8987288E+00
  -3.0699757E+01  -7.1949134E+00   1.3742033E+00
  -3.1847622E+01  -7.9490862E+00   7.8555781E-01
  -3.3008579E+01  -8.8050556E+00   1.3104701E-01
  -3.4170902E+01  -9.7767458E+00  -5.8985746E-01
  -3.5319504E+01  -1.0878730E+01  -1.3762929E+00
  -3.6434895E+01  -1.2125056E+01  -2.2257884E+00
  -3.7491871E+01  -1.3527246E+01  -3.1337206E+00
  -3.8458027E+01  -1.5091132E+01  -4.0920835E+00
  -3.9292755E+01  -1.6812431E+01  -5.0870786E+00
  -3.9947918E+01  -1.8671289E+01  -6.0953484E+00
  -4.0371666E+01  -2.0626579E+01  -7.0791597E+00
  -4.0516777E+01  -2.2611542E+01  -7.9818354E+00
  -4.0353706E+01  -2.4532944E+01  -8.7255325E+00
  -3.9886566E+01  -2.6276171E+01  -9.2138510E+00
  -3.9167854E+01  -2.7717506E+01  -9.3409548E+00
  -3.8306007E+01  -2.8742813E+01  -9.0066376E+00
  -3.7460751E+01  -2.9268242E+01  -8.1340122E+00
  -2.2446203E+01  -1.7823053E+01  -3.7941718E+00
  -1.4104939E-01  -9.0503693E-02   6.6307592E-01
  -1.5691662E-01  -1.2320137E-01   6.2755299E-01
  -1.6035414E-01  -1.5779400E-01   5.9207916E-01
  -1.5332222E-01  -1.9083691E-01   5.5999470E-01
  -1.3888836E-01  -2.1996307E-01   5.3332663E-01
  -1.2029076E-01  -2.4399376E-01   5.1283693E-01
  -1.0033131E-01  -2.6271439E-01   4.9829149E-01
  -8.1034184E-02  -2.7659464E-01   4.8885226E-01
  -6.3645840E-02  -2.8642225E-01   4.8342633E-01
  -9.2960100E+00  -9.9385530E-01   3.2767081E+00
  -9.6190748E+00  -1.0207324E+00   3.3590863E+00
  -9.9520416E+00  -1.0490693E+00   3.4418328E+00
  -1.0295267E+01  -1.0790386E+00   3.5247076E+00
  -1.0649153E+01  -1.1108381E+00   3.6074429E+00
  -1.1014156E+01  -1.1446923E+00   3.6897399E+00
  -1.1390802E+01  -1.1808569E+00   3.7712636E+00
  -1.1779686E+01  -1.2196219E+00   3.8516364E+00
  -1.2181485E+01  -1.2613159E+00   3.9304304E+00
  -1.2596968E+01  -1.3063115E+00   4.0071592E+00
  -1.3027000E+01  -1.3550292E+00   4.0812674E+00
  -1.3472554E+01  -1.4079447E+00   4.1521177E+00
  -1.3934712E+01  -1.4655941E+00   4.2189784E+00
  -1.4414674E+01  -1.5285821E+00   4.2810078E+00
  -1.4913754E+01  -1.5975906E+00   4.3372359E+00
  -1.5433389E+01  -1.6733863E+00   4.3865509E+00
  -1.5975121E+01  -1.7568333E+00   4.4276795E+00
  -1.6540600E+01  -1.8489041E+00   4.4591703E+00
  -1.7131571E+01  -1.9506943E+00   4.4793806E+00
  -1.7749853E+01  -2.0634391E+00   4.4864602E+00
  -1.8397331E+01  -2.1885347E+00   4.4783444E+00
  -1.9075933E+01  -2.3275616E+00   4.4527473E+00
  -1.9787615E+01  -2.4823158E+00   4.4071531E+00
  -2.0534338E+01  -2.6548464E+00   4.3388157E+00
  -2.1318050E+01  -2.8475013E+00   4.2447472E+00
  -2.2140678E+01  -3.0629854E+00   4.1217175E+00
  -2.3004082E+01  -3.3044300E+00   3.9662209E+00
  -2.3910007E+01  -3.5754793E+00   3.7744555E+00
  -2.4860033E+01  -3.8803926E+00   3.5422959E+00
  -2.5855438E+01  -4.2241645E+00   3.2652602E+00
  -2.6897060E+01  -4.6126723E+00   2.9385066E+00
  -2.7985092E+01  -5.0528450E+00   2.5568652E+00
  -2.9118837E+01  -5.5528631E+00   2.1149101E+00
  -3.0296440E+01  -6.1223860E+00   1.6070881E+00
  -3.1514582E+01  -6.7727990E+00   1.0278791E+00
  -3.2768116E+01  -7.5174475E+00   3.7194204E-01
  -3.4049629E+01  -8.3718052E+00  -3.6578739E-01
  -3.5348667E+01  -9.3534441E+00  -1.1900785E+00
  -3.6650623E+01  -1.0481626E+01  -2.1054139E+00
  -3.7934956E+01  -1.1776205E+01  -3.1158295E+00
  -3.9172699E+01  -1.3255459E+01  -4.2241673E+00
  -4.0323563E+01  -1.4932425E+01  -5.4301405E+00
  -4.1333393E+01  -1.6809406E+01  -6.7264590E+00
  -4.2133766E+01  -1.8870705E+01  -8.0926600E+00
  -4.2645916E+01  -2.1074409E+01  -9.4869814E+00
  -4.2791443E+01  -2.3345106E+01  -1.0838129E+01
  -4.2510674E+01  -2.5570679E+01  -1.2040248E+01
  -4.1786861E+01  -2.7607006E+01  -1.2955331E+01
  -4.0669903E+01  -2.9293304E+01  -1.3426448E+01
  -3.9290264E+01  -3.0477650E+01  -1.3301772E+01
  -3.7854015E+01  -3.1047054E+01  -1.2463977E+01
  -3.6615768E+01  -3.0952648E+01  -1.0855334E+01
  -1.4380019E+01  -1.2084284E+01  -2.9377394E+00
  -1.9399834E-01  -1.1455345E-01   6.8726349E-01
  -1.9719744E-01  -1.5433121E-01   6.3716412E-01
  -1.8665504E-01  -1.9165897E-01   5.9201431E-01
  -1.6684151E-01  -2.2374344E-01   5.5478191E-01
  -1.4228439E-01  -2.4939346E-01   5.2645302E-01
  -1.1669827E-01  -2.6866627E-01   5.0648570E-01
  -9.2615128E-02  -2.8235579E-01   4.9353576E-01
  -7.1450233E-02  -2.9156303E-01   4.8598266E-01
  -9.3372469E+00  -9.1107416E-01   3.2809706E+00
  -9.6623049E+00  -9.3503630E-01   3.3624609E+00
  -9.9974527E+00  -9.6031827E-01   3.4442217E+00
  -1.0343066E+01  -9.8707581E-01   3.5260093E+00
  -1.0699577E+01  -1.0154865E+00   3.6075523E+00
  -1.1067473E+01  -1.0457526E+00   3.6885478E+00
  -1.1447313E+01  -1.0781044E+00   3.7686567E+00
  -1.1839730E+01  -1.1128030E+00   3.8474951E+00
  -1.2245448E+01  -1.1501449E+00   3.9246297E+00
  -1.2665281E+01  -1.1904664E+00   3.9995666E+00
  -1.3100152E+01  -1.2341475E+00   4.0717402E+00
  -1.3551093E+01  -1.2816190E+00   4.1405005E+00
  -1.4019258E+01  -1.3333669E+00   4.2051001E+00
  -1.4505925E+01  -1.3899412E+00   4.2646770E+00
  -1.5012498E+01  -1.4519625E+00   4.3182359E+00
  -1.5540510E+01  -1.5201317E+00   4.3646321E+00
  -1.6091619E+01  -1.5952405E+00   4.4025531E+00
  -1.6667601E+01  -1.6781832E+00   4.4304967E+00
  -1.7270342E+01  -1.7699715E+00   4.4467573E+00
  -1.7901827E+01  -1.8717514E+00   4.4494123E+00
  -1.8564131E+01  -1.9848241E+00   4.4363031E+00
  -1.9259399E+01  -2.1106713E+00   4.4050322E+00
  -1.9989840E+01  -2.2509878E+00   4.3529463E+00
  -2.0757710E+01  -2.4077201E+00   4.2771325E+00
  -2.1565313E+01  -2.5831168E+00   4.1743956E+00
  -2.2414991E+01  -2.7797885E+00   4.0412474E+00
  -2.3309101E+01  -3.0007873E+00   3.8738596E+00
  -2.4249992E+01  -3.2496989E+00   3.6680253E+00
  -2.5239950E+01  -3.5307603E+00   3.4191012E+00
  -2.6281109E+01  -3.8490019E+00   3.1219492E+00
  -2.7375332E+01  -4.2104230E+00   2.7708938E+00
  -2.8524023E+01  -4.6222034E+00   2.3596916E+00
  -2.9727940E+01  -5.0929651E+00   1.8815436E+00
  -3.0986937E+01  -5.6330853E+00   1.3291147E+00
  -3.2299698E+01  -6.2550550E+00   6.9455981E-01
  -3.3663353E+01  -6.9738750E+00  -3.0527949E-02
  -3.5072903E+01  -7.8074121E+00  -8.5527253E-01
  -3.6520237E+01  -8.7765980E+00  -1.7898109E+00
  -3.7992485E+01  -9.9052753E+00  -2.8456006E+00
  -3.9469307E+01  -1.1219280E+01  -4.0354853E+00
  -4.0919083E+01  -1.2744337E+01  -5.3728790E+00
  -4.2294014E+01  -1.4502068E+01  -6.8691273E+00
  -4.3525433E+01  -1.6503586E+01  -8.5279284E+00
  -4.4521339E+01  -1.8740396E+01  -1.0336060E+01
  -4.5169621E+01  -2.1173218E+01  -1.2250551E+01
  -4.5350838E+01  -2.3720892E+01  -1.4184755E+01
  -4.4963188E+01  -2.6253645E+01  -1.5998246E+01
  -4.3957661E+01  -2.8596071E+01  -1.7497517E+01
  -4.2375458E+01  -3.0545303E+01  -1.8454199E+01
  -4.0372528E+01  -3.1904610E+01  -1.8642063E+01
  -3.8215778E+01  -3.2525574E+01  -1.7884964E+01
  -3.6243996E+01  -3.2344639E+01  -1.6099186E+01
  -3.4802834E+01  -3.1398680E+01  -1.3311861E+01
  -2.3564386E-01  -1.2311554E-01   7.6034069E-01
  -2.3786926E-01  -1.6588974E-01   6.9139862E-01
  -2.2254372E-01  -2.0502853E-01   6.2979031E-01
  -1.9598675E-01  -2.3758793E-01   5.7957983E-01
  -1.6432381E-01  -2.6258564E-01   5.4183578E-01
  -1.3234806E-01  -2.8041744E-01   5.1558113E-01
  -1.0306740E-01  -2.9229832E-01   4.9869823E-01
  -7.7998161E-02  -2.9964018E-01   4.8884225E-01
  -9.3744173E+00  -8.2586026E-01   3.2855077E+00
  -9.7012672E+00  -8.4670603E-01   3.3662426E+00
  -1.0038371E+01  -8.6871427E-01   3.4471631E+00
  -1.0386126E+01  -8.9202154E-01   3.5280216E+00
  -1.0744988E+01  -9.1678399E-01   3.6085434E+00
  -1.1115474E+01  -9.4317937E-01   3.6884229E+00
  -1.1498168E+01  -9.7140968E-01   3.7673151E+00
  -1.1893744E+01  -1.0017048E+00   3.8448331E+00
  -1.2302959E+01  -1.0343258E+00   3.9205370E+00
  -1.2726676E+01  -1.0695684E+00   3.9939251E+00
  -1.3165865E+01  -1.1077684E+00   4.0644236E+00
  -1.3621614E+01  -1.1493058E+00   4.1313710E+00
  -1.4095141E+01  -1.1946110E+00   4.1940045E+00
  -1.4587795E+01  -1.2441711E+00   4.2514429E+00
  -1.5101063E+01  -1.2985379E+00   4.3026686E+00
  -1.5636563E+01  -1.3583353E+00   4.3465066E+00
  -1.6196062E+01  -1.4242704E+00   4.3816051E+00
  -1.6781450E+01  -1.4971446E+00   4.4064178E+00
  -1.7394751E+01  -1.5778675E+00   4.4191823E+00
  -1.8038105E+01  -1.6674738E+00   4.4179034E+00
  -1.8713760E+01  -1.7671437E+00   4.4003391E+00
  -1.9424074E+01  -1.8782279E+00   4.3639855E+00
  -2.0171497E+01  -2.0022802E+00   4.3060617E+00
  -2.0958584E+01  -2.1410954E+00   4.2234945E+00
  -2.1787975E+01  -2.2967625E+00   4.1128907E+00
  -2.2662436E+01  -2.4717228E+00   3.9705172E+00
  -2.3584824E+01  -2.6688559E+00   3.7922320E+00
  -2.4558098E+01  -2.8915730E+00   3.5734301E+00
  -2.5585289E+01  -3.1439445E+00   3.3089585E+00
  -2.6669434E+01  -3.4308553E+00   2.9930263E+00
  -2.7813498E+01  -3.7581999E+00   2.6191080E+00
  -2.9020229E+01  -4.1331272E+00   2.1798594E+00
  -3.0292038E+01  -4.5643520E+00   1.6670347E+00
  -3.1630789E+01  -5.0625362E+00   1.0713907E+00
  -3.3037586E+01  -5.6407571E+00   3.8251859E-01
  -3.4512436E+01  -6.3150434E+00  -4.1145134E-01
  -3.6053596E+01  -7.1049347E+00  -1.3243587E+00
  -3.7656403E+01  -8.0339422E+00  -2.3727322E+00
  -3.9311096E+01  -9.1297073E+00  -3.5766008E+00
  -4.0999172E+01  -1.0423419E+01  -4.9599915E+00
  -4.2687973E+01  -1.1947975E+01  -6.5502567E+00
  -4.4323479E+01  -1.3733986E+01  -8.3749027E+00
  -4.5822533E+01  -1.5802790E+01  -1.0454227E+01
  -4.7067257E+01  -1.8155764E+01  -1.2788240E+01
  -4.7906265E+01  -2.0760216E+01  -1.5337656E+01
  -4.8168831E+01  -2.3533949E+01  -1.8001648E+01
  -4.7696930E+01  -2.6333637E+01  -2.0599232E+01
  -4.6394958E+01  -2.8954914E+01  -2.2865765E+01
  -4.4286255E+01  -3.1151985E+01  -2.4476164E+01
  -4.1554520E+01  -3.2680000E+01  -2.5100060E+01
  -3.8543701E+01  -3.3351307E+01  -2.4477638E+01
  -3.5703144E+01  -3.3085979E+01  -2.2488842E+01
  -3.3491253E+01  -3.1933981E+01  -1.9184305E+01
  -3.2274834E+01  -3.0057848E+01  -1.4762070E+01
  -2.7887917E-01  -2.0009041E-01   7.5044060E-01
  -2.5748539E-01  -2.3638344E-01   6.6973209E-01
  -2.2310066E-01  -2.6511478E-01   6.0494041E-01
  -1.8369579E-01  -2.8574944E-01   5.5706120E-01
  -1.4509106E-01  -2.9921722E-01   5.2426815E-01
  -1.1073399E-01  -3.0707073E-01   5.0350475E-01
  -8.2075119E-02  -3.1094265E-01   4.9149966E-01
  -9.4069271E+00  -7.3860961E-01   3.2900927E+00
  -9.7353382E+00  -7.5616872E-01   3.3702030E+00
  -1.0074144E+01  -7.7471781E-01   3.4504261E+00
  -1.0423764E+01  -7.9437298E-01   3.5305121E+00
  -1.0784671E+01  -8.1526697E-01   3.6101840E+00
  -1.1157405E+01  -8.3755118E-01   3.6891315E+00
  -1.1542580E+01  -8.6139745E-01   3.7670071E+00
  -1.1940896E+01  -8.8700169E-01   3.8434196E+00
  -1.2353148E+01  -9.1458631E-01   3.9179235E+00
  -1.2780232E+01  -9.4440383E-01   3.9900107E+00
  -1.3223166E+01  -9.7674084E-01   4.0590992E+00
  -1.3683088E+01  -1.0119225E+00   4.1245179E+00
  -1.4161266E+01  -1.0503176E+00   4.1854906E+00
  -1.4659117E+01  -1.0923440E+00   4.2411189E+00
  -1.5178194E+01  -1.1384761E+00   4.2903638E+00
  -1.5720202E+01  -1.1892518E+00   4.3320241E+00
  -1.6286995E+01  -1.2452817E+00   4.3647146E+00
  -1.6880575E+01  -1.3072602E+00   4.3868480E+00
  -1.7503078E+01  -1.3759776E+00   4.3966098E+00
  -1.8156794E+01  -1.4523370E+00   4.3919430E+00
  -1.8844130E+01  -1.5373712E+00   4.3705277E+00
  -1.9567636E+01  -1.6322688E+00   4.3297644E+00
  -2.0329990E+01  -1.7384030E+00   4.2667561E+00
  -2.1134018E+01  -1.8573694E+00   4.1782846E+00
  -2.1982691E+01  -1.9910347E+00   4.0607758E+00
  -2.2879169E+01  -2.1415970E+00   3.9102674E+00
  -2.3826801E+01  -2.3116641E+00   3.7223253E+00
  -2.4829138E+01  -2.5043509E+00   3.4919729E+00
  -2.5889944E+01  -2.7234056E+00   3.2135739E+00
  -2.7013168E+01  -2.9733667E+00   2.8807073E+00
  -2.8202894E+01  -3.2597682E+00   2.4860258E+00
  -2.9463282E+01  -3.5893993E+00   2.0210981E+00
  -3.0798489E+01  -3.9706423E+00   1.4762318E+00
  -3.2212574E+01  -4.4138999E+00   8.4022665E-01
  -3.3709358E+01  -4.9321346E+00   9.9998236E-02
  -3.5292171E+01  -5.5415177E+00  -7.6002693E-01
  -3.6963215E+01  -6.2621527E+00  -1.7588397E+00
  -3.8722225E+01  -7.1187806E+00  -2.9201357E+00
  -4.0563885E+01  -8.1412668E+00  -4.2737956E+00
  -4.2473255E+01  -9.3644409E+00  -5.8570738E+00
  -4.4418674E+01  -1.0826710E+01  -7.7143879E+00
  -4.6341866E+01  -1.2566408E+01  -9.8939323E+00
  -4.8146507E+01  -1.4614762E+01  -1.2438625E+01
  -4.9688148E+01  -1.6984303E+01  -1.5368865E+01
  -5.0771988E+01  -1.9652361E+01  -1.8655888E+01
  -5.1166855E+01  -2.2541576E+01  -2.2188261E+01
  -5.0644497E+01  -2.5502998E+01  -2.5740749E+01
  -4.9046566E+01  -2.8311594E+01  -2.8962303E+01
  -4.6366859E+01  -3.0685911E+01  -3.1403681E+01
  -4.2816944E+01  -3.2337711E+01  -3.2595936E+01
  -3.8833744E+01  -3.3042530E+01  -3.2165688E+01
  -3.5004890E+01  -3.2705124E+01  -2.9943935E+01
  -3.1930126E+01  -3.1388626E+01  -2.6015408E+01
  -3.0076588E+01  -2.9291889E+01  -2.0681694E+01
  -9.8344936E+00  -8.8273821E+00  -4.1091175E+00
  -2.8581142E-01  -2.9006958E-01   7.0501328E-01
  -2.4335194E-01  -3.0876732E-01   6.2609386E-01
  -1.9652653E-01  -3.2009983E-01   5.6892014E-01
  -1.5205574E-01  -3.2548428E-01   5.3057241E-01
  -1.1355400E-01  -3.2668352E-01   5.0675488E-01
  -8.2262993E-02  -3.2530737E-01   4.9325299E-01
  -9.4342499E+00  -6.4968365E-01   3.2944591E+00
  -9.7639694E+00  -6.6381592E-01   3.3740706E+00
  -1.0104201E+01  -6.7875296E-01   3.4537361E+00
  -1.0455381E+01  -6.9458938E-01   3.5332031E+00
  -1.0817998E+01  -7.1143323E-01   3.6121917E+00
  -1.1192611E+01  -7.2940755E-01   3.6903892E+00
  -1.1579858E+01  -7.4865240E-01   3.7674456E+00
  -1.1980464E+01  -7.6932740E-01   3.8429651E+00
  -1.2395251E+01  -7.9161394E-01   3.9164982E+00
  -1.2825150E+01  -8.1571817E-01   3.9875321E+00
  -1.3271210E+01  -8.4187418E-01   4.0554776E+00
  -1.3734614E+01  -8.7034810E-01   4.1196537E+00
  -1.4216679E+01  -9.0144181E-01   4.1792741E+00
  -1.4718869E+01  -9.3549848E-01   4.2334261E+00
  -1.5242804E+01  -9.7290778E-01   4.2810526E+00
  -1.5790255E+01  -1.0141126E+00   4.3209291E+00
  -1.6363155E+01  -1.0596172E+00   4.3516426E+00
  -1.6963596E+01  -1.1099960E+00   4.3715692E+00
  -1.7593824E+01  -1.1659050E+00   4.3788519E+00
  -1.8256243E+01  -1.2280954E+00   4.3713789E+00
  -1.8953409E+01  -1.2974305E+00   4.3467650E+00
  -1.9688040E+01  -1.3749065E+00   4.3023281E+00
  -2.0463018E+01  -1.4616799E+00   4.2350693E+00
  -2.1281404E+01  -1.5591006E+00   4.1416435E+00
  -2.2146473E+01  -1.6687555E+00   4.0183191E+00
  -2.3061745E+01  -1.7925243E+00   3.8609309E+00
  -2.4031004E+01  -1.9326496E+00   3.6647875E+00
  -2.5058363E+01  -2.0918279E+00   3.4245763E+00
  -2.6148270E+01  -2.2733264E+00   3.1342247E+00
  -2.7305523E+01  -2.4811330E+00   2.7867415E+00
  -2.8535297E+01  -2.7201509E+00   2.3740194E+00
  -2.9843115E+01  -2.9964557E+00   1.8866141E+00
  -3.1234867E+01  -3.3176265E+00   1.3134574E+00