# vtk DataFile Version 3.0
T01 + IGRF magnetic field in GSW coordinates
ASCII
DATASET STRUCTURED_GRID
DIMENSIONS     61    21    21
POINTS    26901 float
     -50.000000     -10.000000     -10.000000
     -49.000000     -10.000000     -10.000000
     -48.000000     -10.000000     -10.000000
     -47.000000     -10.000000     -10.000000
     -46.000000     -10.000000     -10.000000
     -45.000000     -10.000000     -10.000000
     -44.000000     -10.000000     -10.000000
     -43.000000     -10.000000     -10.000000
     -42.000000     -10.000000     -10.000000
     -41.000000     -10.000000     -10.000000
     -40.000000     -10.000000     -10.000000
     -39.000000     -10.000000     -10.000000
     -38.000000     -10.000000     -10.000000
     -37.000000     -10.000000     -10.000000
     -36.000000     -10.000000     -10.000000
     -35.000000     -10.000000     -10.000000
     -34.000000     -10.000000     -10.000000
     -33.000000     -10.000000     -10.000000
     -32.000000     -10.000000     -10.000000
     -31.000000     -10.000000     -10.000000
     -30.000000     -10.000000     -10.000000
     -29.000000     -10.000000     -10.000000
     -28.000000     -10.000000     -10.000000
     -27.000000     -10.000000     -10.000000
     -26.000000     -10.000000     -10.000000
     -25.000000     -10.000000     -10.000000
     -24.000000     -10.000000     -10.000000
     -23.000000     -10.000000     -10.000000
     -22.000000     -10.000000     -10.000000
     -21.000000     -10.000000     -10.000000
     -20.000000     -10.000000     -10.000000
     -19.000000     -10.000000     -10.000000
     -18.000000     -10.000000     -10.000000
     -17.000000     -10.000000     -10.000000
     -16.000000     -10.000000     -10.000000
     -15.000000     -10.000000     -10.000000
     -14.000000     -10.000000     -10.000000
     -13.000000     -10.000000     -10.000000
     -12.000000     -10.000000     -10.000000
     -11.000000     -10.000000     -10.000000
     -10.000000     -10.000000     -10.000000
      -9.000000     -10.000000     -10.000000
      -8.000000     -10.000000     -10.000000
      -7.000000     -10.000000     -10.000000
      -6.000000     -10.000000     -10.000000
      -5.000000     -10.000000     -10.000000
      -4.000000     -10.000000     -10.000000
      -3.000000     -10.000000     -10.000000
      -2.000000     -10.000000     -10.000000
      -1.000000     -10.000000     -10.000000
       0.000000     -10.000000     -10.000000
       1.000000     -10.000000     -10.000000
       2.000000     -10.000000     -10.000000
       3.000000     -10.000000     -10.000000
       4.000000     -10.000000     -10.000000
       5.000000     -10.000000     -10.000000
       6.000000     -10.000000     -10.000000
       7.000000     -10.000000     -10.000000
       8.000000     -10.000000     -10.000000
       9.000000     -10.000000     -10.000000
      10.000000     -10.000000     -10.000000
     -50.000000      -9.000000     -10.000000
     -49.000000      -9.000000     -10.000000
     -48.000000      -9.000000     -10.000000
     -47.000000      -9.000000     -10.000000
     -46.000000      -9.000000     -10.000000
     -45.000000      -9.000000     -10.000000
     -44.000000      -9.000000     -10.000000
     -43.000000      -9.000000     -10.000000
     -42.000000      -9.000000     -10.000000
     -41.000000      -9.000000     -10.000000
     -40.000000      -9.000000     -10.000000
     -39.000000      -9.000000     -10.000000
     -38.000000      -9.000000     -10.000000
     -37.000000      -9.000000     -10.000000
     -36.000000      -9.000000     -10.000000
     -35.000000      -9.000000     -10.000000
     -34.000000      -9.000000     -10.000000
     -33.000000      -9.000000     -10.000000
     -32.000000      -9.000000     -10.000000
     -31.000000      -9.000000     -10.000000
     -30.000000      -9.000000     -10.000000
     -29.000000      -9.000000     -10.000000
     -28.000000      -9.000000     -10.000000
     -27.000000      -9.000000     -10.000000
     -26.000000      -9.000000     -10.000000
     -25.000000      -9.000000     -10.000000
     -24.000000      -9.000000     -10.000000
     -23.000000      -9.000000     -10.000000
     -22.000000      -9.000000     -10.000000
     -21.000000      -9.000000     -10.000000
     -20.000000      -9.000000     -10.000000
     -19.000000      -9.000000     -10.000000
     -18.000000      -9.000000     -10.000000
     -17.000000      -9.000000     -10.000000
     -16.000000      -9.000000     -10.000000
     -15.000000      -9.000000     -10.000000
     -14.000000      -9.000000     -10.000000
     -13.000000      -9.000000     -10.000000
     -12.000000      -9.000000     -10.000000
     -11.000000      -9.000000     -10.000000
     -10.000000      -9.000000     -10.000000
      -9.000000      -9.000000     -10.000000
      -8.000000      -9.000000     -10.000000
      -7.000000      -9.000000     -10.000000
      -6.000000      -9.000000     -10.000000
      -5.000000      -9.000000     -10.000000
      -4.000000      -9.000000     -10.000000
      -3.000000      -9.000000     -10.000000
      -2.000000      -9.000000     -10.000000
      -1.000000      -9.000000     -10.000000
       0.000000      -9.000000     -10.000000
       1.000000      -9.000000     -10.000000
       2.000000      -9.000000     -10.000000
       3.000000      -9.000000     -10.000000
       4.000000      -9.000000     -10.000000
       5.000000      -9.000000     -10.000000
       6.000000      -9.000000     -10.000000
       7.000000      -9.000000     -10.000000
       8.000000      -9.000000     -10.000000
       9.000000      -9.000000     -10.000000
      10.000000      -9.000000     -10.000000
     -50.000000      -8.000000     -10.000000
     -49.000000      -8.000000     -10.000000
     -48.000000      -8.000000     -10.000000
     -47.000000      -8.000000     -10.000000
     -46.000000      -8.000000     -10.000000
     -45.000000      -8.000000     -10.000000
     -44.000000      -8.000000     -10.000000
     -43.000000      -8.000000     -10.000000
     -42.000000      -8.000000     -10.000000
     -41.000000      -8.000000     -10.000000
     -40.000000      -8.000000     -10.000000
     -39.000000      -8.000000     -10.000000
     -38.000000      -8.000000     -10.000000
     -37.000000      -8.000000     -10.000000
     -36.000000      -8.000000     -10.000000
     -35.000000      -8.000000     -10.000000
     -34.000000      -8.000000     -10.000000
     -33.000000      -8.000000     -10.000000
     -32.000000      -8.000000     -10.000000
     -31.000000      -8.000000     -10.000000
     -30.000000      -8.000000     -10.000000
     -29.000000      -8.000000     -10.000000
     -28.000000      -8.000000     -10.000000
     -27.000000      -8.000000     -10.000000
     -26.000000      -8.000000     -10.000000
     -25.000000      -8.000000     -10.000000
     -24.000000      -8.000000     -10.000000
     -23.000000      -8.000000     -10.000000
     -22.000000      -8.000000     -10.000000
     -21.000000      -8.000000     -10.000000
     -20.000000      -8.000000     -10.000000
     -19.000000      -8.000000     -10.000000
     -18.000000      -8.000000     -10.000000
     -17.000000      -8.000000     -10.000000
     -16.000000      -8.000000     -10.000000
     -15.000000      -8.000000     -10.000000
     -14.000000      -8.000000     -10.000000
     -13.000000      -8.000000     -10.000000
     -12.000000      -8.000000     -10.000000
     -11.000000      -8.000000     -10.000000
     -10.000000      -8.000000     -10.000000
      -9.000000      -8.000000     -10.000000
      -8.000000      -8.000000     -10.000000
      -7.000000      -8.000000     -10.000000
      -6.000000      -8.000000     -10.000000
      -5.000000      -8.000000     -10.000000
      -4.000000      -8.000000     -10.000000
      -3.000000      -8.000000     -10.000000
      -2.000000      -8.000000     -10.000000
      -1.000000      -8.000000     -10.000000
       0.000000      -8.000000     -10.000000
       1.000000      -8.000000     -10.000000
       2.000000      -8.000000     -10.000000
       3.000000      -8.000000     -10.000000
       4.000000      -8.000000     -10.000000
       5.000000      -8.000000     -10.000000
       6.000000      -8.000000     -10.000000
       7.000000      -8.000000     -10.000000
       8.000000      -8.000000     -10.000000
       9.000000      -8.000000     -10.000000
      10.000000      -8.000000     -10.000000
     -50.000000      -7.000000     -10.000000
     -49.000000      -7.000000     -10.000000
     -48.000000      -7.000000     -10.000000
     -47.000000      -7.000000     -10.000000
     -46.000000      -7.000000     -10.000000
     -45.000000      -7.000000     -10.000000
     -44.000000      -7.000000     -10.000000
     -43.000000      -7.000000     -10.000000
     -42.000000      -7.000000     -10.000000
     -41.000000      -7.000000     -10.000000
     -40.000000      -7.000000     -10.000000
     -39.000000      -7.000000     -10.000000
     -38.000000      -7.000000     -10.000000
     -37.000000      -7.000000     -10.000000
     -36.000000      -7.000000     -10.000000
     -35.000000      -7.000000     -10.000000
     -34.000000      -7.000000     -10.000000
     -33.000000      -7.000000     -10.000000
     -32.000000      -7.000000     -10.000000
     -31.000000      -7.000000     -10.000000
     -30.000000      -7.000000     -10.000000
     -29.000000      -7.000000     -10.000000
     -28.000000      -7.000000     -10.000000
     -27.000000      -7.000000     -10.000000
     -26.000000      -7.000000     -10.000000
     -25.000000      -7.000000     -10.000000
[...]
POINT_DATA    26901
VECTORS B_total float
  -9.5922794E+00  -1.3031739E+00   3.2379494E+00
  -9.9197292E+00  -1.3390268E+00   3.3237028E+00
  -1.0256480E+01  -1.3764772E+00   3.4100833E+00
  -1.0602795E+01  -1.4157120E+00   3.4968262E+00
  -1.0958977E+01  -1.4569463E+00   3.5836341E+00
  -1.1325379E+01  -1.5004263E+00   3.6701725E+00
  -1.1702406E+01  -1.5464329E+00   3.7560635E+00
  -1.2090523E+01  -1.5952854E+00   3.8408813E+00
  -1.2490269E+01  -1.6473470E+00   3.9241452E+00
  -1.2902252E+01  -1.7030277E+00   4.0053091E+00
  -1.3327167E+01  -1.7627908E+00   4.0837545E+00
  -1.3765796E+01  -1.8271580E+00   4.1587791E+00
  -1.4219010E+01  -1.8967154E+00   4.2295837E+00
  -1.4687778E+01  -1.9721211E+00   4.2952619E+00
  -1.5173157E+01  -2.0541115E+00   4.3547845E+00
  -1.5676294E+01  -2.1435111E+00   4.4069872E+00
  -1.6198421E+01  -2.2412405E+00   4.4505582E+00
  -1.6740839E+01  -2.3483295E+00   4.4840274E+00
  -1.7304901E+01  -2.4659276E+00   4.5057559E+00
  -1.7892002E+01  -2.5953205E+00   4.5139303E+00
  -1.8503542E+01  -2.7379475E+00   4.5065627E+00
  -1.9140913E+01  -2.8954246E+00   4.4814930E+00
  -1.9805468E+01  -3.0695679E+00   4.4363928E+00
  -2.0498470E+01  -3.2624290E+00   4.3687782E+00
  -2.1221085E+01  -3.4763308E+00   4.2760201E+00
  -2.1974310E+01  -3.7139153E+00   4.1553535E+00
  -2.2758930E+01  -3.9781976E+00   4.0039048E+00
  -2.3575438E+01  -4.2726250E+00   3.8186867E+00
  -2.4423925E+01  -4.6011500E+00   3.5966296E+00
  -2.5303949E+01  -4.9683070E+00   3.3346257E+00
  -2.6214333E+01  -5.3792939E+00   3.0295980E+00
  -2.7152945E+01  -5.8400588E+00   2.6786273E+00
  -2.8116436E+01  -6.3573813E+00   2.2791495E+00
  -2.9099949E+01  -6.9389458E+00   1.8292334E+00
  -3.0096853E+01  -7.5933743E+00   1.3279274E+00
  -3.1098459E+01  -8.3301926E+00   7.7566433E-01
  -3.2093800E+01  -9.1596661E+00   1.7467439E-01
  -3.3069374E+01  -1.0092391E+01  -4.7062412E-01
  -3.4008907E+01  -1.1138540E+01  -1.1532910E+00
  -3.4892986E+01  -1.2306551E+01  -1.8635255E+00
  -3.5698734E+01  -1.3601109E+01  -2.5882189E+00
  -3.6399590E+01  -1.5020313E+01  -3.3101554E+00
  -3.6965706E+01  -1.6552010E+01  -4.0066204E+00
  -3.7365730E+01  -1.8169796E+01  -4.6473207E+00
  -3.7570724E+01  -1.9829311E+01  -5.1919193E+00
  -3.7561043E+01  -2.1466221E+01  -5.5880771E+00
  -3.7335701E+01  -2.2997358E+01  -5.7713137E+00
  -3.6922817E+01  -2.4326336E+01  -5.6681466E+00
  -3.6387951E+01  -2.5353977E+01  -5.2030725E+00
  -3.5836891E+01  -2.5992062E+01  -4.3084636E+00
  -9.9215806E-02  -4.5279980E-01   3.7238979E-01
  -7.8380585E-02  -4.7407627E-01   3.5886335E-01
  -5.2219391E-02  -4.8869896E-01   3.5097122E-01
  -2.3642540E-02  -4.9549961E-01   3.4942770E-01
   4.3249130E-03  -4.9446201E-01   3.5399437E-01
   2.9169083E-02  -4.8659134E-01   3.6363125E-01
   4.9243927E-02  -4.7352409E-01   3.7684643E-01
   6.3868523E-02  -4.5712852E-01   3.9204431E-01
   7.3151112E-02  -4.3914175E-01   4.0780628E-01
   7.7751637E-02  -4.2098999E-01   4.2304167E-01
   7.8579903E-02  -4.0367270E-01   4.3702799E-01
  -9.6342087E+00  -1.2140820E+00   3.2332256E+00
  -9.9635010E+00  -1.2470694E+00   3.3174767E+00
  -1.0302287E+01  -1.2815472E+00   3.4022205E+00
  -1.0650860E+01  -1.3176894E+00   3.4871881E+00
  -1.1009554E+01  -1.3556962E+00   3.5720787E+00
  -1.1378757E+01  -1.3957964E+00   3.6565530E+00
  -1.1758911E+01  -1.4382516E+00   3.7402306E+00
  -1.2150527E+01  -1.4833596E+00   3.8226805E+00
  -1.2554190E+01  -1.5314581E+00   3.9034162E+00
  -1.2970562E+01  -1.5829301E+00   3.9818854E+00
  -1.3400398E+01  -1.6382083E+00   4.0574613E+00
  -1.3844543E+01  -1.6977812E+00   4.1294312E+00
  -1.4303944E+01  -1.7621983E+00   4.1969824E+00
  -1.4779644E+01  -1.8320785E+00   4.2591906E+00
  -1.5272792E+01  -1.9081157E+00   4.3150053E+00
  -1.5784634E+01  -1.9910899E+00   4.3632340E+00
  -1.6316507E+01  -2.0818758E+00   4.4025316E+00
  -1.6869833E+01  -2.1814551E+00   4.4313827E+00
  -1.7446104E+01  -2.2909300E+00   4.4480953E+00
  -1.8046864E+01  -2.4115405E+00   4.4507914E+00
  -1.8673689E+01  -2.5446842E+00   4.4373994E+00
  -1.9328173E+01  -2.6919403E+00   4.4056587E+00
  -2.0011890E+01  -2.8551009E+00   4.3531156E+00
  -2.0726379E+01  -3.0362082E+00   4.2771301E+00
  -2.1473110E+01  -3.2375970E+00   4.1748772E+00
  -2.2253445E+01  -3.4619522E+00   4.0433459E+00
  -2.3068588E+01  -3.7123747E+00   3.8793542E+00
  -2.3919525E+01  -3.9924574E+00   3.6795273E+00
  -2.4806923E+01  -4.3063774E+00   3.4403086E+00
  -2.5730989E+01  -4.6590023E+00   3.1579807E+00
  -2.6691303E+01  -5.0560122E+00   2.8287051E+00
  -2.7686594E+01  -5.5040359E+00   2.4486165E+00
  -2.8714464E+01  -6.0108027E+00   2.0139723E+00
  -2.9771112E+01  -6.5852938E+00   1.5213661E+00
  -3.0850996E+01  -7.2378778E+00   9.6799386E-01
  -3.1946503E+01  -7.9804020E+00   3.5195637E-01
  -3.3047504E+01  -8.8261213E+00  -3.2745337E-01
  -3.4140839E+01  -9.7894163E+00  -1.0694613E+00
  -3.5209557E+01  -1.0885042E+01  -1.8715409E+00
  -3.6231857E+01  -1.2126736E+01  -2.7289844E+00
  -3.7179852E+01  -1.3524879E+01  -3.6340799E+00
  -3.8018295E+01  -1.5082968E+01  -4.5745325E+00
  -3.8704121E+01  -1.6792881E+01  -5.5306997E+00
  -3.9187836E+01  -1.8629162E+01  -6.4715509E+00
  -3.9418381E+01  -2.0543356E+01  -7.3498206E+00
  -3.9352467E+01  -2.2459957E+01  -8.0977859E+00
  -3.8968597E+01  -2.4276442E+01  -8.6259489E+00
  -3.8283356E+01  -2.5869490E+01  -8.8270617E+00
  -3.7365540E+01  -2.7108829E+01  -8.5870733E+00
  -3.6341854E+01  -2.7877018E+01  -7.8018970E+00
  -3.5389317E+01  -2.8090595E+01  -6.3957348E+00
  -9.9079609E-02  -4.8851395E-01   3.0003929E-01
  -6.4499378E-02  -5.0730896E-01   2.8896761E-01
  -2.6822090E-02  -5.1610851E-01   2.8763914E-01
   9.5782280E-03  -5.1495552E-01   2.9548454E-01
   4.1187763E-02  -5.0526905E-01   3.1071424E-01
   6.5897942E-02  -4.8933411E-01   3.3085346E-01
   8.3022118E-02  -4.6963024E-01   3.5340524E-01
   9.3005657E-02  -4.4839573E-01   3.7624681E-01
   9.6973896E-02  -4.2735672E-01   3.9784658E-01
   9.6326351E-02  -4.0767145E-01   4.1727847E-01
  -9.6698570E+00  -1.1203613E+00   3.2274821E+00
  -1.0000765E+01  -1.1502382E+00   3.3103659E+00
  -1.0341346E+01  -1.1814824E+00   3.3936238E+00
  -1.0691916E+01  -1.2142534E+00   3.4769852E+00
  -1.1052839E+01  -1.2487346E+00   3.5601459E+00
  -1.1424535E+01  -1.2851357E+00   3.6427643E+00
  -1.1807483E+01  -1.3236966E+00   3.7244563E+00
  -1.2202232E+01  -1.3646899E+00   3.8047867E+00
  -1.2609413E+01  -1.4084264E+00   3.8832653E+00
  -1.3029740E+01  -1.4552577E+00   3.9593341E+00
  -1.3464019E+01  -1.5055822E+00   4.0323591E+00
  -1.3913157E+01  -1.5598499E+00   4.1016178E+00
  -1.4378170E+01  -1.6185687E+00   4.1662855E+00
  -1.4860177E+01  -1.6823107E+00   4.2254229E+00
  -1.5360411E+01  -1.7517207E+00   4.2779589E+00
  -1.5880212E+01  -1.8275245E+00   4.3226762E+00
  -1.6421021E+01  -1.9105392E+00   4.3581958E+00
  -1.6984381E+01  -2.0016854E+00   4.3829637E+00
  -1.7571913E+01  -2.1020026E+00   4.3952360E+00
  -1.8185320E+01  -2.2126656E+00   4.3930712E+00
  -1.8826355E+01  -2.3350055E+00   4.3743210E+00
  -1.9496809E+01  -2.4705398E+00   4.3366237E+00
  -2.0198500E+01  -2.6210001E+00   4.2774043E+00
  -2.0933241E+01  -2.7883766E+00   4.1938667E+00
  -2.1702835E+01  -2.9749663E+00   4.0829868E+00
  -2.2509033E+01  -3.1834364E+00   3.9415176E+00
  -2.3353508E+01  -3.4168983E+00   3.7659497E+00
  -2.4237793E+01  -3.6789989E+00   3.5525088E+00
  -2.5163212E+01  -3.9740336E+00   3.2971296E+00
  -2.6130743E+01  -4.3070765E+00   2.9954443E+00
  -2.7140884E+01  -4.6841412E+00   2.6427903E+00
  -2.8193436E+01  -5.1123695E+00   2.2342544E+00
  -2.9287258E+01  -5.6002498E+00   1.7647519E+00
  -3.0419987E+01  -6.1578603E+00   1.2291536E+00
  -3.1587704E+01  -6.7971301E+00   6.2242639E-01
  -3.2784492E+01  -7.5320511E+00  -6.0226440E-02
  -3.4001884E+01  -8.3788023E+00  -8.2326400E-01
  -3.5227955E+01  -9.3556061E+00  -1.6707345E+00
  -3.6446014E+01  -1.0482130E+01  -2.6061344E+00
  -3.7632732E+01  -1.1778125E+01  -3.6319854E+00
  -3.8755630E+01  -1.3260899E+01  -4.7486868E+00
  -3.9770363E+01  -1.4941213E+01  -5.9520226E+00
  -4.0618786E+01  -1.6817429E+01  -7.2287278E+00
  -4.1229397E+01  -1.8867882E+01  -8.5497532E+00
  -4.1522579E+01  -2.1042603E+01  -9.8619194E+00
  -4.1422775E+01  -2.3256332E+01  -1.1079924E+01
  -4.0878304E+01  -2.5386240E+01  -1.2082337E+01
  -3.9886364E+01  -2.7278105E+01  -1.2716019E+01
  -3.8516296E+01  -2.8763681E+01  -1.2812167E+01
  -3.6921181E+01  -2.9688086E+01  -1.2213344E+01
  -3.5328625E+01  -2.9940971E+01  -1.0804890E+01
  -3.4008545E+01  -2.9480717E+01  -8.5394163E+00
  -8.0475807E-02  -5.1564407E-01   2.1042347E-01
  -3.1328678E-02  -5.2755547E-01   2.0931244E-01
   1.5581131E-02  -5.2713299E-01   2.2173882E-01
   5.5413246E-02  -5.1632214E-01   2.4468231E-01
   8.5500717E-02  -4.9812889E-01   2.7423096E-01
   1.0526657E-01  -4.7574329E-01   3.0657339E-01
   1.1567593E-01  -4.5192242E-01   3.3863115E-01
   1.1853409E-01  -4.2870426E-01   3.6833048E-01
   1.1586761E-01  -4.0735722E-01   3.9452600E-01
  -9.6996737E+00  -1.0226114E+00   3.2208812E+00
  -1.0031982E+01  -1.0491642E+00   3.3025320E+00
  -1.0374122E+01  -1.0769465E+00   3.3844559E+00
  -1.0726434E+01  -1.1061022E+00   3.4663799E+00
  -1.1089308E+01  -1.1367958E+00   3.5479975E+00
  -1.1463192E+01  -1.1692160E+00   3.6289649E+00
  -1.1848599E+01  -1.2035787E+00   3.7088952E+00
  -1.2246116E+01  -1.2401297E+00   3.7873511E+00
  -1.2656410E+01  -1.2791483E+00   3.8638380E+00
  -1.3080244E+01  -1.3209523E+00   3.9377935E+00
  -1.3518475E+01  -1.3659014E+00   4.0085778E+00
  -1.3972066E+01  -1.4144024E+00   4.0754590E+00
  -1.4442094E+01  -1.4669156E+00   4.1376038E+00
  -1.4929751E+01  -1.5239606E+00   4.1940575E+00
  -1.5436348E+01  -1.5861241E+00   4.2437305E+00
  -1.5963312E+01  -1.6540685E+00   4.2853842E+00
  -1.6512188E+01  -1.7285421E+00   4.3176088E+00
  -1.7084627E+01  -1.8103911E+00   4.3388128E+00
  -1.7682386E+01  -1.9005746E+00   4.3472066E+00
  -1.8307312E+01  -2.0001819E+00   4.3407888E+00
  -1.8961332E+01  -2.1104550E+00   4.3173361E+00
  -1.9646442E+01  -2.2328160E+00   4.2743950E+00
  -2.0364695E+01  -2.3689005E+00   4.2092705E+00
  -2.1118191E+01  -2.5206008E+00   4.1190181E+00
  -2.1909073E+01  -2.6901190E+00   4.0004225E+00
  -2.2739494E+01  -2.8800328E+00   3.8499899E+00
  -2.3611620E+01  -3.0933771E+00   3.6638987E+00
  -2.4527580E+01  -3.3337471E+00   3.4379704E+00
  -2.5489405E+01  -3.6054225E+00   3.1676188E+00
  -2.6498943E+01  -3.9135213E+00   2.8478055E+00
  -2.7557732E+01  -4.2641940E+00   2.4730029E+00
  -2.8666836E+01  -4.6648521E+00   2.0371721E+00
  -2.9826637E+01  -5.1244564E+00   1.5337610E+00
  -3.1036587E+01  -5.6538501E+00   9.5570588E-01
  -3.2294880E+01  -6.2661314E+00   2.9540735E-01
  -3.3597992E+01  -6.9770336E+00  -4.5535737E-01
  -3.4939953E+01  -7.8052378E+00  -1.3056046E+00
  -3.6311146E+01  -8.7724667E+00  -2.2653930E+00
  -3.7696419E+01  -9.9031296E+00  -3.3459761E+00
  -3.9072159E+01  -1.1223140E+01  -4.5595264E+00
  -4.0402374E+01  -1.2757421E+01  -5.9177866E+00
  -4.1633995E+01  -1.4525473E+01  -7.4287014E+00
  -4.2692688E+01  -1.6534483E+01  -9.0899906E+00
  -4.3481464E+01  -1.8769852E+01  -1.0879033E+01
  -4.3885445E+01  -2.1183804E+01  -1.2739493E+01
  -4.3786583E+01  -2.3684557E+01  -1.4567406E+01
  -4.3090679E+01  -2.6130434E+01  -1.6202093E+01
  -4.1764168E+01  -2.8334660E+01  -1.7429413E+01
  -3.9871456E+01  -3.0085983E+01  -1.8004013E+01
  -3.7596859E+01  -3.1184895E+01  -1.7691181E+01
  -3.5235092E+01  -3.1487516E+01  -1.6318605E+01
  -3.3144714E+01  -3.0941410E+01  -1.3819073E+01
  -3.1676548E+01  -2.9597889E+01  -1.0244375E+01
  -3.8508415E-02  -5.2203369E-01   1.1523914E-01
   2.1132469E-02  -5.2408600E-01   1.3340569E-01
   7.0727348E-02  -5.1384354E-01   1.6627121E-01
   1.0695171E-01  -4.9504852E-01   2.0782328E-01
   1.2950230E-01  -4.7160244E-01   2.5245428E-01
   1.4008617E-01  -4.4676495E-01   2.9586077E-01
   1.4139080E-01  -4.2281866E-01   3.3532119E-01
   1.3623047E-01  -4.0111828E-01   3.6949897E-01
  -9.7241688E+00  -9.2140210E-01   3.2137821E+00
  -1.0057670E+01  -9.4444561E-01   3.2943399E+00
  -1.0401141E+01  -9.6856797E-01   3.3750854E+00
  -1.0754945E+01  -9.9389529E-01   3.4557436E+00
  -1.1119496E+01  -1.0205722E+00   3.5360069E+00
  -1.1495267E+01  -1.0487645E+00   3.6155295E+00
  -1.1882800E+01  -1.0786618E+00   3.6939223E+00
  -1.2282715E+01  -1.1104803E+00   3.7707465E+00
  -1.2695717E+01  -1.1444659E+00   3.8455038E+00
  -1.3122605E+01  -1.1808983E+00   3.9176280E+00
  -1.3564285E+01  -1.2200947E+00   3.9864743E+00
  -1.4021772E+01  -1.2624145E+00   4.0513048E+00
  -1.4496198E+01  -1.3082645E+00   4.1112757E+00
  -1.4988819E+01  -1.3581053E+00   4.1654205E+00
  -1.5501019E+01  -1.4124576E+00   4.2126341E+00
  -1.6034307E+01  -1.4719112E+00   4.2516570E+00
  -1.6590317E+01  -1.5371341E+00   4.2810531E+00
  -1.7170813E+01  -1.6088841E+00   4.2991972E+00
  -1.7777664E+01  -1.6880234E+00   4.3042564E+00
  -1.8412867E+01  -1.7755353E+00   4.2941761E+00
  -1.9078506E+01  -1.8725466E+00   4.2666645E+00
  -1.9776777E+01  -1.9803532E+00   4.2191815E+00
  -2.0509966E+01  -2.1004555E+00   4.1489220E+00
  -2.1280447E+01  -2.2345986E+00   4.0527992E+00
  -2.2090694E+01  -2.3848295E+00   3.9274170E+00
  -2.2943281E+01  -2.5535588E+00   3.7690487E+00
  -2.3840858E+01  -2.7436502E+00   3.5735676E+00
  -2.4786165E+01  -2.9585247E+00   3.3364019E+00
  -2.5781973E+01  -3.2022936E+00   3.0524535E+00
  -2.6831051E+01  -3.4799268E+00   2.7160151E+00
  -2.7936062E+01  -3.7974656E+00   2.3206792E+00
  -2.9099470E+01  -4.1622882E+00   1.8592499E+00
  -3.0323372E+01  -4.5834427E+00   1.3236313E+00
  -3.1609329E+01  -5.0720558E+00   7.0468140E-01
  -3.2958096E+01  -5.6418142E+00  -8.0139041E-03
  -3.4369133E+01  -6.3094883E+00  -8.2652313E-01
  -3.5839809E+01  -7.0954485E+00  -1.7650988E+00
  -3.7363945E+01  -8.0240288E+00  -2.8408864E+00
  -3.8929298E+01  -9.1234856E+00  -4.0745382E+00
  -4.0513657E+01  -1.0425165E+01  -5.4903231E+00
  -4.2079182E+01  -1.1961260E+01  -7.1147966E+00
  -4.3565342E+01  -1.3760374E+01  -8.9727306E+00
  -4.4881702E+01  -1.5840050E+01  -1.1078607E+01
  -4.5903408E+01  -1.8195618E+01  -1.3422388E+01
  -4.6474186E+01  -2.0785851E+01  -1.5949556E+01
  -4.6422924E+01  -2.3517675E+01  -1.8538471E+01
  -4.5598499E+01  -2.6235407E+01  -2.0982660E+01
  -4.3921974E+01  -2.8722698E+01  -2.2990171E+01
  -4.1443977E+01  -3.0725086E+01  -2.4212328E+01
  -3.8383354E+01  -3.1995501E+01  -2.4306053E+01
  -3.5119846E+01  -3.2352695E+01  -2.3016071E+01
  -3.2128868E+01  -3.1731213E+01  -2.0245815E+01
  -2.9875616E+01  -3.0199722E+01  -1.6082836E+01
  -1.6996601E+01  -1.6719332E+01  -6.3601360E+00
   2.3879051E-02  -4.9755669E-01   3.4930229E-02
   8.4758759E-02  -4.9096394E-01   7.9264641E-02
   1.2794971E-01  -4.7465324E-01   1.3485241E-01
   1.5353107E-01  -4.5308590E-01   1.9374561E-01
   1.6421604E-01  -4.2989635E-01   2.5013781E-01
   1.6376114E-01  -4.0757561E-01   3.0056238E-01
   1.5590763E-01  -3.8751745E-01   3.4353268E-01
  -9.7438564E+00  -8.1728637E-01   3.2066700E+00
  -1.0078348E+01  -8.3666241E-01   3.2862825E+00
  -1.0422932E+01  -8.5695487E-01   3.3660121E+00
  -1.0777987E+01  -8.7827086E-01   3.4455829E+00
  -1.1143946E+01  -9.0073365E-01   3.5246849E+00
  -1.1521306E+01  -9.2448431E-01   3.6029725E+00
  -1.1910635E+01  -9.4968438E-01   3.6800544E+00
  -1.2312579E+01  -9.7651786E-01   3.7554898E+00
  -1.2727876E+01  -1.0051947E+00   3.8287787E+00
  -1.3157361E+01  -1.0359533E+00   3.8993518E+00
  -1.3601979E+01  -1.0690647E+00   3.9665596E+00
  -1.4062788E+01  -1.1048366E+00   4.0296588E+00
  -1.4540975E+01  -1.1436168E+00   4.0877972E+00
  -1.5037848E+01  -1.1858007E+00   4.1399984E+00
  -1.5554855E+01  -1.2318360E+00   4.1851439E+00
  -1.6093578E+01  -1.2822304E+00   4.2219553E+00
  -1.6655739E+01  -1.3375604E+00   4.2489738E+00
  -1.7243189E+01  -1.3984828E+00   4.2645454E+00
  -1.7857916E+01  -1.4657463E+00   4.2667994E+00
  -1.8502035E+01  -1.5402080E+00   4.2536321E+00
  -1.9177790E+01  -1.6228538E+00   4.2226915E+00
  -1.9887554E+01  -1.7148237E+00   4.1713595E+00
  -2.0633827E+01  -1.8174424E+00   4.0967312E+00
  -2.1419249E+01  -1.9322604E+00   3.9955907E+00
  -2.2246609E+01  -2.0611055E+00   3.8643761E+00
  -2.3118866E+01  -2.2061439E+00   3.6991446E+00
  -2.4039154E+01  -2.3699672E+00   3.4954884E+00
  -2.5010799E+01  -2.5556931E+00   3.2484651E+00
  -2.6037315E+01  -2.7670999E+00   2.9524918E+00
  -2.7122383E+01  -3.0087948E+00   2.6012199E+00
  -2.8269817E+01  -3.2864349E+00   2.1873913E+00
  -2.9483526E+01  -3.6070051E+00   1.7026659E+00
  -3.0767435E+01  -3.9791789E+00   1.1374048E+00
  -3.2125389E+01  -4.4137659E+00   4.8034775E-01
  -3.3560963E+01  -4.9242640E+00  -2.8184798E-01
  -3.5077057E+01  -5.5274954E+00  -1.1653196E+00
  -3.6675056E+01  -6.2442951E+00  -2.1899924E+00
  -3.8353161E+01  -7.1001053E+00  -3.3808403E+00
  -4.0103409E+01  -8.1252975E+00  -4.7691784E+00
  -4.1906715E+01  -9.3547459E+00  -6.3934002E+00
  -4.3725506E+01  -1.0826084E+01  -8.2980156E+00
  -4.5493908E+01  -1.2575637E+01  -1.0529173E+01
  -4.7106754E+01  -1.4630899E+01  -1.3124220E+01
  -4.8410797E+01  -1.6998571E+01  -1.6093023E+01
  -4.9204288E+01  -1.9647789E+01  -1.9389837E+01
  -4.9253841E+01  -2.2490835E+01  -2.2879019E+01
  -4.8337173E+01  -2.5367029E+01  -2.6304344E+01
  -4.6313686E+01  -2.8040262E+01  -2.9280270E+01
  -4.3208500E+01  -3.0221600E+01  -3.1326376E+01
  -3.9275528E+01  -3.1622263E+01  -3.1955761E+01
  -3.4996384E+01  -3.2026505E+01  -3.0800013E+01
  -3.0992104E+01  -3.1356110E+01  -2.7721409E+01
  -2.7871452E+01  -2.9695278E+01  -2.2855553E+01
  -2.6080656E+01  -2.7261377E+01  -1.6558664E+01
   2.0084381E-02  -4.3978310E-01  -6.3829422E-02
   9.3616486E-02  -4.4139767E-01  -8.2731247E-03
   1.4472008E-01  -4.3216515E-01   6.1730385E-02
   1.7391491E-01  -4.1676044E-01   1.3541985E-01
   1.8504810E-01  -3.9900875E-01   2.0519638E-01
   1.8312263E-01  -3.8148737E-01   2.6681423E-01
   1.7282963E-01  -3.6564350E-01   3.1862879E-01
  -9.7592125E+00  -7.1080232E-01   3.2000780E+00
  -1.0094503E+01  -7.2637904E-01   3.2789023E+00
  -1.0439986E+01  -7.4269944E-01   3.3577869E+00
  -1.0796055E+01  -7.5985092E-01   3.4364548E+00
  -1.1163159E+01  -7.7793348E-01   3.5145960E+00
  -1.1541815E+01  -7.9706234E-01   3.5918632E+00
  -1.1932609E+01  -8.1736875E-01   3.6678643E+00
  -1.2336212E+01  -8.3900297E-01   3.7421575E+00
  -1.2753391E+01  -8.6213613E-01   3.8142405E+00
  -1.3185008E+01  -8.8696283E-01   3.8835418E+00
  -1.3632042E+01  -9.1370445E-01   3.9494083E+00
  -1.4095589E+01  -9.4261229E-01   4.0110922E+00
  -1.4576876E+01  -9.7397166E-01   4.0677342E+00
  -1.5077264E+01  -1.0081064E+00   4.1183505E+00
  -1.5598250E+01  -1.0453840E+00   4.1618099E+00
  -1.6141483E+01  -1.0862224E+00   4.1968193E+00
  -1.6708752E+01  -1.1310972E+00   4.2219014E+00
  -1.7301992E+01  -1.1805503E+00   4.2353759E+00
  -1.7923285E+01  -1.2352024E+00   4.2353401E+00
  -1.8574860E+01  -1.2957660E+00   4.2196498E+00
  -1.9259092E+01  -1.3630633E+00   4.1859012E+00
  -1.9978514E+01  -1.4380473E+00   4.1314073E+00
  -2.0735815E+01  -1.5218319E+00   4.0531774E+00
  -2.1533867E+01  -1.6157248E+00   3.9478846E+00
  -2.2375748E+01  -1.7212758E+00   3.8118200E+00
  -2.3264763E+01  -1.8403299E+00   3.6408501E+00
  -2.4204491E+01  -1.9751077E+00   3.4303198E+00
  -2.5198793E+01  -2.1282949E+00   3.1749537E+00
  -2.6251873E+01  -2.3031700E+00   2.8687341E+00
  -2.7368271E+01  -2.5037584E+00   2.5047281E+00
  -2.8552904E+01  -2.7350428E+00   2.0748951E+00
  -2.9811073E+01  -3.0032318E+00   1.5698335E+00
  -3.1148497E+01  -3.3161099E+00   9.7844338E-01