# vtk DataFile Version 3.0
SM polar seed points transformed to GSW coordinates
ASCII
DATASET POLYDATA
POINTS      288 float
       0.734212       0.000000       1.308026
       0.708658       0.194114       1.307717
       0.633738       0.375000       1.306809
       0.514558       0.530330       1.305366
       0.359239       0.649519       1.303485
       0.178367       0.724444       1.301294
      -0.015733       0.750000       1.298943
      -0.209833       0.724444       1.296592
      -0.390706       0.649519       1.294401
      -0.546024       0.530330       1.292520
      -0.665205       0.375000       1.291076
      -0.740124       0.194114       1.290169
      -0.765678      -0.000000       1.289859
      -0.740124      -0.194114       1.290169
      -0.665205      -0.375000       1.291076
      -0.546024      -0.530330       1.292520
      -0.390706      -0.649519       1.294401
      -0.209833      -0.724444       1.296592
      -0.015733      -0.750000       1.298943
       0.178367      -0.724444       1.301294
       0.359239      -0.649519       1.303485
       0.514558      -0.530330       1.305366
       0.633738      -0.375000       1.306809
       0.708658      -0.194114       1.307717
       0.617416       0.000000       1.367040
       0.595817       0.164072       1.366778
       0.532492       0.316964       1.366011
       0.431756       0.448254       1.364791
       0.300475       0.548997       1.363201
       0.147595       0.612327       1.361349
      -0.016465       0.633927       1.359362
      -0.180525       0.612327       1.357375
      -0.333405       0.548997       1.355523
      -0.464687       0.448254       1.353933
      -0.565422       0.316964       1.352713
      -0.628747       0.164073       1.351946
      -0.650346      -0.000000       1.351684
      -0.628747      -0.164073       1.351946
      -0.565422      -0.316964       1.352713
      -0.464687      -0.448254       1.353933
      -0.333405      -0.548997       1.355523
      -0.180525      -0.612327       1.357375
      -0.016465      -0.633927       1.359362
       0.147595      -0.612327       1.361349
       0.300475      -0.548997       1.363201
       0.431756      -0.448254       1.364791
       0.532492      -0.316964       1.366011
       0.595817      -0.164073       1.366778
       0.495921       0.000000       1.415649
       0.478441       0.132782       1.415437
       0.427193       0.256515       1.414817
       0.345669       0.362767       1.413829
       0.239425       0.444297       1.412542
       0.115701       0.495549       1.411044
      -0.017072       0.513030       1.409436
      -0.149844       0.495549       1.407827
      -0.273568       0.444297       1.406329
      -0.379812       0.362767       1.405042
      -0.461336       0.256515       1.404055
      -0.512584       0.132782       1.403434
      -0.530064      -0.000000       1.403222
      -0.512584      -0.132782       1.403434
      -0.461336      -0.256515       1.404055
      -0.379812      -0.362767       1.405042
      -0.273568      -0.444297       1.406329
      -0.149844      -0.495549       1.407827
      -0.017072      -0.513030       1.409436
       0.115701      -0.495549       1.411044
       0.239425      -0.444297       1.412542
       0.345669      -0.362767       1.413829
       0.427193      -0.256515       1.414817
       0.478441      -0.132782       1.415437
       0.370652       0.000000       1.453484
       0.357424       0.100481       1.453324
       0.318643       0.194114       1.452855
       0.256951       0.274519       1.452107
       0.176552       0.336216       1.451133
       0.082925       0.375000       1.449999
      -0.017548       0.388229       1.448782
      -0.118022       0.375000       1.447566
      -0.211648       0.336216       1.446432
      -0.292047       0.274519       1.445458
      -0.353739       0.194114       1.444710
      -0.392521       0.100481       1.444241
      -0.405748      -0.000000       1.444080
      -0.392521      -0.100481       1.444241
      -0.353739      -0.194114       1.444710
      -0.292047      -0.274519       1.445458
      -0.211648      -0.336216       1.446432
      -0.118022      -0.375000       1.447566
      -0.017548      -0.388229       1.448782
       0.082925      -0.375000       1.449999
       0.176552      -0.336216       1.451133
       0.256951      -0.274519       1.452107
       0.318643      -0.194114       1.452855
       0.357424      -0.100481       1.453324
       0.242562       0.000000       1.480258
       0.233687       0.067415       1.480150
       0.207668       0.130236       1.479835
       0.166277       0.184182       1.479334
       0.112335       0.225576       1.478681
       0.049519       0.251597       1.477920
      -0.017891       0.260472       1.477103
      -0.085301       0.251597       1.476287
      -0.148118       0.225576       1.475526
      -0.202059       0.184182       1.474872
      -0.243450       0.130236       1.474371
      -0.269470       0.067415       1.474056
      -0.278344      -0.000000       1.473948
      -0.269470      -0.067415       1.474056
      -0.243450      -0.130236       1.474371
      -0.202059      -0.184182       1.474872
      -0.148118      -0.225576       1.475526
      -0.085301      -0.251597       1.476287
      -0.017891      -0.260472       1.477103
       0.049519      -0.251597       1.477920
       0.112335      -0.225576       1.478681
       0.166277      -0.184182       1.479334
       0.207668      -0.130236       1.479835
       0.233687      -0.067415       1.480150
       0.112626       0.000000       1.495766
       0.108172       0.033836       1.495712
       0.095112       0.065367       1.495554
       0.074338       0.092443       1.495302
       0.047264       0.113219       1.494974
       0.015736       0.126279       1.494592
      -0.018098       0.130734       1.494182
      -0.051932       0.126279       1.493773
      -0.083460       0.113219       1.493391
      -0.110534       0.092443       1.493063
      -0.131308       0.065367       1.492811
      -0.144368       0.033836       1.492653
      -0.148822      -0.000000       1.492599
      -0.144368      -0.033836       1.492653
      -0.131308      -0.065367       1.492811
      -0.110534      -0.092443       1.493063
      -0.083460      -0.113219       1.493391
      -0.051932      -0.126279       1.493773
      -0.018098      -0.130734       1.494182
       0.015736      -0.126279       1.494592
       0.047264      -0.113219       1.494974
       0.074338      -0.092443       1.495302
       0.095112      -0.065367       1.495554
       0.108172      -0.033836       1.495712
       0.765678       0.000000      -1.289859
       0.740124       0.194114      -1.290169
       0.665205       0.375000      -1.291076
       0.546024       0.530330      -1.292520
       0.390706       0.649519      -1.294401
       0.209833       0.724444      -1.296592
       0.015733       0.750000      -1.298943
      -0.178367       0.724444      -1.301294
      -0.359239       0.649519      -1.303485
      -0.514558       0.530330      -1.305366
      -0.633738       0.375000      -1.306809
      -0.708658       0.194114      -1.307717
      -0.734212      -0.000000      -1.308026
      -0.708658      -0.194114      -1.307717
      -0.633738      -0.375000      -1.306809
      -0.514558      -0.530330      -1.305366
      -0.359239      -0.649519      -1.303485
      -0.178367      -0.724444      -1.301294
       0.015733      -0.750000      -1.298943
       0.209833      -0.724444      -1.296592
       0.390706      -0.649519      -1.294401
       0.546024      -0.530330      -1.292520
       0.665204      -0.375000      -1.291076
       0.740124      -0.194114      -1.290169
       0.650346       0.000000      -1.351684
       0.628747       0.164072      -1.351946
       0.565422       0.316964      -1.352713
       0.464686       0.448254      -1.353933
       0.333405       0.548997      -1.355523
       0.180525       0.612327      -1.357375
       0.016465       0.633927      -1.359362
      -0.147595       0.612327      -1.361349
      -0.300475       0.548997      -1.363201
      -0.431756       0.448254      -1.364791
      -0.532492       0.316964      -1.366011
      -0.595817       0.164073      -1.366778
      -0.617416      -0.000000      -1.367040
      -0.595817      -0.164073      -1.366778
      -0.532492      -0.316964      -1.366011
      -0.431756      -0.448254      -1.364791
      -0.300475      -0.548997      -1.363201
      -0.147595      -0.612327      -1.361349
       0.016465      -0.633927      -1.359362
       0.180525      -0.612327      -1.357375
       0.333405      -0.548997      -1.355523
       0.464686      -0.448254      -1.353933
       0.565422      -0.316964      -1.352713
       0.628747      -0.164073      -1.351946
       0.530064       0.000000      -1.403222
       0.512584       0.132782      -1.403434
       0.461336       0.256515      -1.404055
       0.379812       0.362767      -1.405042
       0.273568       0.444297      -1.406329
       0.149844       0.495549      -1.407827
       0.017072       0.513030      -1.409436
      -0.115701       0.495549      -1.411044
      -0.239425       0.444297      -1.412542
      -0.345669       0.362767      -1.413829
      -0.427193       0.256515      -1.414817
      -0.478441       0.132782      -1.415437
      -0.495921      -0.000000      -1.415649
      -0.478441      -0.132782      -1.415437
      -0.427193      -0.256515      -1.414817
      -0.345669      -0.362767      -1.413829
      -0.239425      -0.444297      -1.412542
      -0.115701      -0.495549      -1.411044
       0.017072      -0.513030      -1.409436
       0.149844      -0.495549      -1.407827
       0.273568      -0.444297      -1.406329
       0.379812      -0.362767      -1.405042
       0.461336      -0.256515      -1.404055
       0.512584      -0.132782      -1.403434
       0.405748       0.000000      -1.444080
       0.392521       0.100481      -1.444241
       0.353739       0.194114      -1.444710
       0.292047       0.274519      -1.445458
       0.211648       0.336216      -1.446432
       0.118022       0.375000      -1.447566
       0.017548       0.388229      -1.448782
      -0.082925       0.375000      -1.449999
      -0.176552       0.336216      -1.451133
      -0.256951       0.274519      -1.452107
      -0.318643       0.194114      -1.452855
      -0.357424       0.100481      -1.453324
      -0.370652      -0.000000      -1.453484
      -0.357424      -0.100481      -1.453324
      -0.318643      -0.194114      -1.452855
      -0.256951      -0.274519      -1.452107
      -0.176552      -0.336216      -1.451133
      -0.082925      -0.375000      -1.449999
       0.017548      -0.388229      -1.448782
       0.118022      -0.375000      -1.447566
       0.211648      -0.336216      -1.446432
       0.292047      -0.274519      -1.445458
       0.353739      -0.194114      -1.444710
       0.392521      -0.100481      -1.444241
       0.278344       0.000000      -1.473948
       0.269470       0.067415      -1.474056
       0.243450       0.130236      -1.474371
       0.202059       0.184182      -1.474872
       0.148118       0.225576      -1.475526
       0.085301       0.251597      -1.476287
       0.017891       0.260472      -1.477103
      -0.049519       0.251597      -1.477920
      -0.112335       0.225576      -1.478681
      -0.166277       0.184182      -1.479334
      -0.207668       0.130236      -1.479835
      -0.233687       0.067415      -1.480150
      -0.242562      -0.000000      -1.480258
      -0.233687      -0.067415      -1.480150
      -0.207668      -0.130236      -1.479835
      -0.166277      -0.184182      -1.479334
      -0.112335      -0.225576      -1.478681
      -0.049519      -0.251597      -1.477920
       0.017891      -0.260472      -1.477103
       0.085301      -0.251597      -1.476287
       0.148118      -0.225576      -1.475526
       0.202059      -0.184182      -1.474872
       0.243450      -0.130236      -1.474371
       0.269470      -0.067415      -1.474056
       0.148822       0.000000      -1.492599
       0.144368       0.033836      -1.492653
       0.131308       0.065367      -1.492811
       0.110534       0.092443      -1.493063
       0.083460       0.113219      -1.493391
       0.051932       0.126279      -1.493773
       0.018098       0.130734      -1.494182
      -0.015736       0.126279      -1.494592
      -0.047264       0.113219      -1.494974
      -0.074338       0.092443      -1.495302
      -0.095112       0.065367      -1.495554
      -0.108172       0.033836      -1.495712
      -0.112626      -0.000000      -1.495766
      -0.108172      -0.033836      -1.495712
      -0.095112      -0.065367      -1.495554
      -0.074338      -0.092443      -1.495302
      -0.047264      -0.113219      -1.494974
      -0.015736      -0.126279      -1.494592
       0.018098      -0.130734      -1.494182
       0.051932      -0.126279      -1.493773
       0.083460      -0.113219      -1.493391
       0.110534      -0.092443      -1.493063
       0.131308      -0.065367      -1.492811
       0.144368      -0.033836      -1.492653
VERTICES      288     576
 1        0
 1        1
 1        2
 1        3
 1        4
 1        5
 1        6
 1        7
 1        8
 1        9
 1       10
 1       11
 1       12
 1       13
 1       14
 1       15
 1       16
 1       17
 1       18
 1       19
 1       20
 1       21
 1       22
 1       23
 1       24
 1       25
 1       26
 1       27
 1       28
 1       29
 1       30
 1       31
 1       32
 1       33
 1       34
 1       35
 1       36
 1       37
 1       38
 1       39
 1       40
 1       41
 1       42
 1       43
 1       44
 1       45
 1       46
 1       47
 1       48
 1       49
 1       50
 1       51
 1       52
 1       53
 1       54
 1       55
 1       56
 1       57
 1       58
 1       59
 1       60
 1       61
 1       62
 1       63
 1       64
 1       65
 1       66
 1       67
 1       68
 1       69
 1       70
 1       71
 1       72
 1       73
 1       74
 1       75
 1       76
 1       77
 1       78
 1       79
 1       80
 1       81
 1       82
 1       83
 1       84
 1       85
 1       86
 1       87
 1       88
 1       89
 1       90
 1       91
 1       92
 1       93
 1       94
 1       95
 1       96
 1       97
 1       98
 1       99
 1      100
 1      101
 1      102
 1      103
 1      104
 1      105
 1      106
 1      107
 1      108
 1      109
 1      110
 1      111
 1      112
 1      113
 1      114
 1      115
 1      116
 1      117
 1      118
 1      119
 1      120
 1      121
 1      122
 1      123
 1      124
 1      125
 1      126
 1      127
 1      128
 1      129
 1      130
 1      131
 1      132
 1      133
 1      134
 1      135
 1      136
 1      137
 1      138
 1      139
 1      140
 1      141
 1      142
 1      143
 1      144
 1      145
 1      146
 1      147
 1      148
 1      149
 1      150
 1      151
 1      152
 1      153
 1      154
 1      155
 1      156
 1      157
 1      158
 1      159
 1      160
 1      161
 1      162
 1      163
 1      164
 1      165
 1      166
 1      167
 1      168
 1      169
 1      170
 1      171
 1      172
 1      173
 1      174
 1      175
 1      176
 1      177
 1      178
 1      179
 1      180
 1      181
 1      182
 1      183
 1      184
 1      185
 1      186
 1      187
 1      188
 1      189
 1      190
 1      191
 1      192
 1      193
 1      194
 1      195
 1      196
 1      197
 1      198
 1      199
 1      200
 1      201
 1      202
 1      203
 1      204
 1      205
 1      206
 1      207
 1      208
 1      209
 1      210
 1      211
 1      212
 1      213
 1      214
 1      215
 1      216
 1      217
 1      218
 1      219
 1      220
 1      221
 1      222
 1      223
 1      224
 1      225
 1      226
 1      227
 1      228
 1      229
 1      230
 1      231
 1      232
 1      233
 1      234
 1      235
 1      236
 1      237
 1      238
 1      239
 1      240
 1      241
 1      242
 1      243
 1      244
 1      245
 1      246
 1      247
 1      248
 1      249
 1      250
 1      251
 1      252
 1      253
 1      254
 1      255
 1      256
 1      257
 1      258
 1      259
 1      260
 1      261
 1      262
 1      263
 1      264
 1      265
 1      266
 1      267
 1      268
 1      269
 1      270
 1      271
 1      272
 1      273
 1      274
 1      275
 1      276
 1      277
 1      278
 1      279
 1      280
 1      281
 1      282
 1      283
 1      284
 1      285
 1      286
 1      287
POINT_DATA      288
SCALARS hemisphere int 1
LOOKUP_TABLE default
 1
 1
 1
 1
 1
 1
 1
 1
 1
 1
 1
 1
 1
 1
 1
 1
 1
 1
 1
 1
 1
 1
 1
 1
 1
 1
 1
 1
 1
 1
 1
 1
 1
 1
 1
 1
 1
 1
 1
 1
 1
 1
 1
 1
 1
 1
 1
 1
 1
 1
 1
 1
 1
 1
 1
 1
 1
 1
 1
 1
 1
 1
 1
 1
 1
 1
 1
 1
 1
 1
 1
 1
 1
 1
 1
 1
 1
 1
 1
 1
 1
 1
 1
 1
 1
 1
 1
 1
 1
 1
 1
 1
 1
 1
 1
 1
 1
 1
 1
 1
 1
 1
 1
 1
 1
 1
 1
 1
 1
 1
 1
 1
 1
 1
 1
 1
 1
 1
 1
 1
 1
 1
 1
 1
 1
 1
 1
 1
 1
 1
 1
 1
 1
 1
 1
 1
 1
 1
 1
 1
 1
 1
 1
 1
-1
-1
-1
-1
-1
-1
-1
-1
-1
-1
-1
-1
-1
-1
-1
-1
-1
-1
-1
-1
-1
-1
-1
-1
-1
-1
-1
-1
-1
-1
-1
-1
-1
-1
-1
-1
-1
-1
-1
-1
-1
-1
-1
-1
-1
-1
-1
-1
-1
-1
-1
-1
-1
-1
-1
-1
-1
-1
-1
-1
-1
-1
-1
-1
-1
-1
-1
-1
-1
-1
-1
-1
-1
-1
-1
-1
-1
-1
-1
-1
-1
-1
-1
-1
-1
-1
-1
-1
-1
-1
-1
-1
-1
-1
-1
-1
-1
-1
-1
-1
-1
-1
-1
-1
-1
-1
-1
-1
-1
-1
-1
-1
-1
-1
-1
-1
-1
-1
-1
-1
-1
-1
-1
-1
-1
-1
-1
-1
-1
-1
-1
-1
-1
-1
-1
-1
-1
-1
-1
-1
-1
-1
-1
-1
