<?xml version="1.0"?>
<VTKFile type="StructuredGrid" version="0.1" byte_order="LittleEndian" header_type="UInt32" compressor="vtkZLibDataCompressor">
  <StructuredGrid WholeExtent="0 60 0 20 0 20">
  <Piece Extent="0 60 0 20 0 20">
    <PointData Vectors="B_total">
      <DataArray type="Float32" Name="B_total" NumberOfComponents="3" format="ascii" RangeMin="0" RangeMax="60122.79918852844">
        -9.203904 -1.1502693 3.2694054 -9.522496 -1.182243 3.3539464
        -9.850566 -1.2158935 3.4390864 -10.188412 -1.2514229 3.524594
        -10.536373 -1.2890615 3.6102095 -10.894841 -1.3290721 3.6956425
        -11.264257 -1.3717526 3.7805672 -11.645131 -1.4174414 3.8646166
        -12.038042 -1.466521 3.9473763 -12.443645 -1.519424 4.0283756
        -12.862684 -1.5766374 4.107079 -13.295991 -1.6387101 4.1828756
        -13.744495 -1.7062589 4.2550664 -14.209221 -1.7799757 4.3228517
        -14.691291 -1.8606359 4.3853154 -15.191923 -1.9491074 4.4414134
        -15.712421 -2.0463605 4.489958 -16.254164 -2.1534786 4.5296
        -16.818592 -2.271671 4.558829 -17.407187 -2.4022882 4.5759506
        -18.021446 -2.5468373 4.579093 -18.662865 -2.707003 4.5662017
        -19.332895 -2.884672 4.5350432 -20.032919 -3.0819612 4.4832134
        -20.764227 -3.301254 4.4081445 -21.527952 -3.5452428 4.3071127
        -22.325058 -3.8169756 4.1772523 -23.15623 -4.119919 4.0155506
        -24.021807 -4.458019 3.8188639 -24.92165 -4.835774 3.5839396
        -25.854952 -5.258308 3.3074677 -26.820045 -5.731452 2.9861822
        -27.81412 -6.261809 2.6170287 -28.832983 -6.8568273 2.1974113
        -29.870792 -7.52483 1.7255094 -30.91982 -8.275005 1.2006407
        -31.970264 -9.117293 0.6236332 -33.01003 -10.06207 -0.0028674603
        -34.024483 -11.119547 -0.6741529 -34.99609 -12.298677 -1.3832533
        -35.903908 -13.605408 -2.1206584 -36.723114 -15.040116 -2.873692
        -37.42497 -16.594269 -3.625268 -37.977962 -18.246506 -4.35188
        -38.35105 -19.958921 -5.021012 -38.519783 -21.674719 -5.588817
        -38.475204 -23.318699 -5.999333 -38.23413 -24.801971 -6.1866417
        -37.84811 -26.031485 -6.080874 -37.4074 -26.923094 -5.6174364
        -19.074928 -14.134089 -2.1270628 -0.09188795 -0.09160519 0.6290693
        -0.11326241 -0.11392784 0.60667276 -0.12558699 -0.14096832 0.58184433
        -0.12881565 -0.1697607 0.5571997 -0.12421656 -0.19767094 0.53487754
        -0.11385107 -0.2227745 0.5162506 -0.09998846 -0.24401283 0.5018774
        -0.08468485 -0.26104403 0.49166954 -0.069512844 -0.27409172 0.4851069
        -0.055509567 -0.2836814 0.48146465 -9.251347 -1.073757 3.2728558
        -9.572245 -1.1033157 3.356253 -9.902841 -1.1344538 3.440128
        -10.243464 -1.1673597 3.5242453 -10.594487 -1.2022487 3.608341
        -10.956333 -1.2393655 3.69212 -11.329489 -1.2789881 3.7752528
        -11.714508 -1.3214327 3.8573663 -12.11202 -1.3670568 3.9380398
        -12.522741 -1.4162647 4.0167947 -12.947475 -1.4695128 4.093086
        -13.387128 -1.5273162 4.1662884 -13.842706 -1.5902547 4.2356877
        -14.315324 -1.6589804 4.3004622 -14.806206 -1.7342265 4.3596706
        -15.316676 -1.8168156 4.412233 -15.848163 -1.9076713 4.4569182
        -16.402182 -2.0078292 4.492328 -16.980328 -2.1184502 4.516883
        -17.584248 -2.2408376 4.5288115 -18.21564 -2.3764558 4.5261455
        -18.876205 -2.5269523 4.506713 -19.56765 -2.6941857 4.46814
        -20.291641 -2.8802614 4.4078526 -21.049786 -3.0875695 4.3230753
        -21.843597 -3.31884 4.2108293 -22.674467 -3.577199 4.0679383
        -23.543589 -3.8662448 3.8910027 -24.451876 -4.1901317 3.6763988
        -25.399843 -4.553666 3.4202805 -26.387434 -4.9624186 3.1186032
        -27.413805 -5.422847 2.7671967 -28.477057 -5.9424286 2.361892
        -29.573988 -6.529805 1.8987288 -30.699757 -7.1949134 1.3742033
        -31.847622 -7.949086 0.7855578 -33.00858 -8.805056 0.13104701
        -34.170902 -9.776746 -0.58985746 -35.319504 -10.87873 -1.376293
        -36.434895 -12.125056 -2.2257884 -37.49187 -13.527246 -3.1337206
        -38.458027 -15.091132 -4.0920835 -39.292755 -16.812431 -5.0870786
        -39.947918 -18.67129 -6.0953484 -40.371666 -20.62658 -7.0791597
        -40.516777 -22.611542 -7.9818354 -40.353706 -24.532944 -8.725533
        -39.886566 -26.27617 -9.213851 -39.167854 -27.717506 -9.340955
        -38.306007 -28.742813 -9.006638 -37.46075 -29.268242 -8.134012
        -22.446203 -17.823053 -3.7941718 -0.14104939 -0.09050369 0.6630759
        -0.15691662 -0.12320137 0.627553 -0.16035414 -0.157794 0.59207916
        -0.15332222 -0.1908369 0.5599947 -0.13888836 -0.21996307 0.5333266
        -0.12029076 -0.24399376 0.51283693 -0.10033131 -0.2627144 0.4982915
        -0.08103418 -0.27659464 0.48885226 -0.06364584 -0.28642225 0.48342633
        -9.29601 -0.9938553 3.2767081 -9.619075 -1.0207324 3.3590863
        -9.952042 -1.0490693 3.4418328 -10.295267 -1.0790386 3.5247076
        -10.649153 -1.110838 3.6074429 -11.014156 -1.1446923 3.68974
        -11.390802 -1.180857 3.7712636 -11.779686 -1.2196219 3.8516364
        -12.181485 -1.261316 3.9304304 -12.596968 -1.3063115 4.007159
        -13.027 -1.3550292 4.0812674 -13.472554 -1.4079447 4.1521177
        -13.934712 -1.465594 4.2189784 -14.414674 -1.5285821 4.281008
        -14.913754 -1.5975906 4.337236 -15.433389 -1.6733863 4.386551
        -15.975121 -1.7568333 4.4276795 -16.5406 -1.8489041 4.4591703
        -17.13157 -1.9506943 4.4793806 -17.749853 -2.0634391 4.48646
        -18.397331 -2.1885347 4.4783444 -19.075933 -2.3275616 4.4527473
        -19.787615 -2.4823158 4.407153 -20.534338 -2.6548464 4.3388157
        -21.31805 -2.8475013 4.244747 -22.140678 -3.0629854 4.1217175
        -23.004082 -3.30443 3.9662209 -23.910007 -3.5754793 3.7744555
        -24.860033 -3.8803926 3.542296 -25.855438 -4.2241645 3.2652602
        -26.89706 -4.6126723 2.9385066 -27.985092 -5.052845 2.5568652
        -29.118837 -5.552863 2.1149101 -30.29644 -6.122386 1.6070881
        -31.514582 -6.772799 1.0278791 -32.768116 -7.5174475 0.37194204
        -34.04963 -8.371805 -0.3657874 -35.348667 -9.353444 -1.1900785
        -36.650623 -10.481626 -2.105414 -37.934956 -11.776205 -3.1158295
        -39.1727 -13.255459 -4.2241673 -40.323563 -14.932425 -5.4301405
        -41.333393 -16.809406 -6.726459 -42.133766 -18.870705 -8.09266
        -42.645916 -21.07441 -9.486981 -42.791443 -23.345106 -10.838129
        -42.510674 -25.570679 -12.040248 -41.78686 -27.607006 -12.955331
        -40.669903 -29.293304 -13.426448 -39.290264 -30.47765 -13.301772
        -37.854015 -31.047054 -12.463977 -36.61577 -30.952648 -10.855334
        -14.380019 -12.084284 -2.9377394 -0.19399834 -0.11455345 0.6872635
        -0.19719744 -0.1543312 0.6371641 -0.18665504 -0.19165897 0.5920143
        -0.1668415 -0.22374344 0.5547819 -0.1422844 -0.24939346 0.526453
        -0.11669827 -0.26866627 0.5064857 -0.09261513 -0.2823558 0.49353576
        -0.07145023 -0.29156303 0.48598266 -9.337247 -0.91107416 3.2809706
        -9.662305 -0.9350363 3.3624609 -9.997453 -0.96031827 3.4442217
        -10.343066 -0.9870758 3.5260093 -10.699577 -1.0154865 3.6075523
        -11.067473 -1.0457526 3.6885478 -11.447313 -1.0781044 3.7686567
        -11.83973 -1.112803 3.847495 -12.245448 -1.1501449 3.9246297
        -12.665281 -1.1904664 3.9995666 -13.100152 -1.2341475 4.07174
        -13.551093 -1.281619 4.1405005 -14.019258 -1.3333669 4.2051
        -14.505925 -1.3899412 4.264677 -15.012498 -1.4519625 4.318236
        -15.54051 -1.5201317 4.364632 -16.09162 -1.5952405 4.402553
        -16.6676 -1.6781832 4.4304967 -17.270342 -1.7699715 4.4467573
        -17.901827 -1.8717514 4.4494123 -18.56413 -1.9848241 4.436303
        -19.2594 -2.1106713 4.405032 -19.98984 -2.2509878 4.3529463
        -20.75771 -2.40772 4.2771325 -21.565313 -2.5831168 4.1743956
        -22.414991 -2.7797885 4.0412474 -23.309101 -3.0007873 3.8738596
        -24.249992 -3.2496989 3.6680253 -25.23995 -3.5307603 3.4191012
        -26.281109 -3.849002 3.1219492 -27.375332 -4.210423 2.7708938
        -28.524023 -4.6222034 2.3596916 -29.72794 -5.092965 1.8815436
        -30.986937 -5.6330853 1.3291147 -32.299698 -6.255055 0.6945598
        -33.663353 -6.973875 -0.03052795 -35.072903 -7.807412 -0.85527253
        -36.520237 -8.776598 -1.7898109 -37.992485 -9.905275 -2.8456006
        -39.469307 -11.21928 -4.0354853 -40.919083 -12.744337 -5.372879
        -42.294014 -14.502068 -6.8691273 -43.525433 -16.503586 -8.527928
        -44.52134 -18.740396 -10.33606 -45.16962 -21.173218 -12.250551
        -45.350838 -23.720892 -14.184755 -44.96319 -26.253645 -15.998246
        -43.95766 -28.596071 -17.497517 -42.375458 -30.545303 -18.454199
        -40.372528 -31.90461 -18.642063 -38.21578 -32.525574 -17.884964
        -36.243996 -32.34464 -16.099186 -34.802834 -31.39868 -13.311861
        -0.23564386 -0.12311554 0.7603407 -0.23786926 -0.16588974 0.6913986
        -0.22254372 -0.20502853 0.6297903 -0.19598675 -0.23758793 0.57957983
        -0.1643238 -0.26258564 0.5418358 -0.13234806 -0.28041744 0.51558113
        -0.1030674 -0.29229832 0.49869823 -0.07799816 -0.29964018 0.48884225
        -9.374417 -0.82586026 3.2855077 -9.701267 -0.84670603 3.3662426
        -10.038371 -0.8687143 3.447163 -10.386126 -0.89202154 3.5280216
        -10.744988 -0.916784 3.6085434 -11.115474 -0.94317937 3.688423
        -11.498168 -0.9714097 3.7673151 -11.893744 -1.0017048 3.8448331
        -12.302959 -1.0343258 3.920537 -12.726676 -1.0695684 3.993925
        -13.165865 -1.1077684 4.0644236 -13.621614 -1.1493058 4.131371
        -14.095141 -1.194611 4.1940045 -14.587795 -1.2441711 4.251443
        -15.101063 -1.2985379 4.3026686 -15.636563 -1.3583353 4.3465066
        -16.196062 -1.4242704 4.381605 -16.78145 -1.4971446 4.406418
        -17.39475 -1.5778675 4.4191823 -18.038105 -1.6674738 4.4179034
        -18.71376 -1.7671437 4.400339 -19.424074 -1.878228 4.3639855
        -20.171497 -2.0022802 4.3060617 -20.958584 -2.1410954 4.2234945
        -21.787975 -2.2967625 4.1128907 -22.662436 -2.4717228 3.9705172
        -23.584824 -2.668856 3.792232 -24.558098 -2.891573 3.57343
        -25.585289 -3.1439445 3.3089585 -26.669434 -3.4308553 2.9930263
        -27.813498 -3.7582 2.619108 -29.02023 -4.133127 2.1798594
        -30.292038 -4.564352 1.6670347 -31.630789 -5.0625362 1.0713907
        -33.037586 -5.640757 0.3825186 -34.512436 -6.3150434 -0.41145134
        -36.053596 -7.1049347 -1.3243587 -37.656403 -8.033942 -2.3727322
        -39.311096 -9.129707 -3.5766008 -40.999172 -10.423419 -4.9599915
        -42.687973 -11.947975 -6.5502567 -44.32348 -13.733986 -8.374903
        -45.822533 -15.80279 -10.454227 -47.067257 -18.155764 -12.78824
        -47.906265 -20.760216 -15.337656 -48.16883 -23.533949 -18.001648
        -47.69693 -26.333637 -20.599232 -46.39496 -28.954914 -22.865765
        -44.286255 -31.151985 -24.476164 -41.55452 -32.68 -25.10006
        -38.5437 -33.351307 -24.477638 -35.703144 -33.08598 -22.488842
        -33.491253 -31.93398 -19.184305 -32.274834 -30.057848 -14.76207
        -0.27887917 -0.20009041 0.7504406 -0.2574854 -0.23638344 0.6697321
        -0.22310066 -0.26511478 0.6049404 -0.1836958 -0.28574944 0.5570612
        -0.14509106 -0.29921722 0.52426815 -0.11073399 -0.30707073 0.50350475
        -0.08207512 -0.31094265 0.49149966 -9.406927 -0.7386096 3.2900927
        -9.735338 -0.7561687 3.370203 -10.074144 -0.7747178 3.450426
        -10.423764 -0.794373 3.530512 -10.784671 -0.81526697 3.610184
        -11.157405 -0.8375512 3.6891315 -11.54258 -0.86139745 3.767007
        -11.940896 -0.8870017 3.8434196 -12.353148 -0.9145863 3.9179235
        -12.780232 -0.9444038 3.9900107 -13.223166 -0.97674084 4.059099
        -13.683088 -1.0119225 4.124518 -14.161266 -1.0503176 4.1854906
        -14.659117 -1.092344 4.241119 -15.178194 -1.1384761 4.290364
        -15.720202 -1.1892518 4.332024 -16.286995 -1.2452817 4.3647146
        -16.880575 -1.3072602 4.386848 -17.503078 -1.3759776 4.39661
        -18.156794 -1.452337 4.391943 -18.84413 -1.5373712 4.3705277
        -19.567636 -1.6322688 4.3297644 -20.32999 -1.738403 4.266756
        -21.134018 -1.8573694 4.1782846 -21.98269 -1.9910347 4.0607758
        -22.87917 -2.141597 3.9102674 -23.826801 -2.311664 3.7223253
        -24.829138 -2.504351 3.491973 -25.889944 -2.7234056 3.213574
        -27.013168 -2.9733667 2.8807073 -28.202894 -3.2597682 2.4860258
        -29.463282 -3.5893993 2.0210981 -30.798489 -3.9706423 1.4762318
        -32.212574 -4.4139 0.84022665 -33.70936 -4.9321346 0.099998236
        -35.29217 -5.5415177 -0.76002693 -36.963215 -6.2621527 -1.7588397
        -38.722225 -7.1187806 -2.9201357 -40.563885 -8.141267 -4.2737956
        -42.473255 -9.364441 -5.857074 -44.418674 -10.82671 -7.714388
        -46.341866 -12.566408 -9.893932 -48.146507 -14.614762 -12.438625
        -49.68815 -16.984303 -15.368865 -50.771988 -19.65236 -18.655888
        -51.166855 -22.541576 -22.188261 -50.644497 -25.502998 -25.74075
        -49.046566 -28.311594 -28.962303 -46.36686 -30.685911 -31.40368
        -42.816944 -32.33771 -32.595936 -38.833744 -33.04253 -32.165688
        -35.00489 -32.705124 -29.943935 -31.930126 -31.388626 -26.015408
        -30.076588 -29.29189 -20.681694 -9.834494 -8.827382 -4.1091175
        -0.28581142 -0.29006958 0.7050133 -0.24335194 -0.30876732 0.62609386
        -0.19652653 -0.32009983 0.56892014 -0.15205574 -0.32548428 0.5305724
        -0.113554 -0.32668352 0.5067549 -0.08226299 -0.32530737 0.493253
        -9.43425 -0.64968365 3.294459 -9.763969 -0.6638159 3.3740706
        -10.104201 -0.67875296 3.453736 -10.455381 -0.6945894 3.5332031
        -10.817998 -0.71143323 3.6121917 -11.192611 -0.72940755 3.6903892
        -11.579858 -0.7486524 3.7674456 -11.980464 -0.7693274 3.8429651
        -12.395251 -0.79161394 3.9164982 -12.82515 -0.8157182 3.9875321
        -13.27121 -0.8418742 4.0554776 -13.734614 -0.8703481 4.1196537
        -14.216679 -0.9014418 4.179274 -14.718869 -0.9354985 4.233426
        -15.242804 -0.9729078 4.2810526 -15.790255 -1.0141126 4.320929
        -16.363155 -1.0596172 4.3516426 -16.963596 -1.109996 4.371569
        -17.593824 -1.165905 4.378852 -18.256243 -1.2280954 4.371379
        -18.95341 -1.2974305 4.346765 -19.68804 -1.3749065 4.302328
        -20.463018 -1.4616799 4.2350693 -21.281404 -1.5591006 4.1416435
        -22.146473 -1.6687555 4.018319 -23.061745 -1.7925243 3.860931
        -24.031004 -1.9326496 3.6647875 -25.058363 -2.0918279 3.4245763
        -26.14827 -2.2733264 3.1342247 -27.305523 -2.481133 2.7867415
        -28.535297 -2.720151 2.3740194 -29.843115 -2.9964557 1.8866141
        -31.234867 -3.3176265 1.3134574 -32.716827 -3.693184 0.6414658
        -34.29563 -4.1351457 -0.14507377 -35.97813 -4.658725 -1.0654373
        -37.770817 -5.283143 -2.1438751 -39.678455 -6.0324993 -3.4115431
        -41.701164 -6.9365163 -4.908814 -43.82902 -8.03079 -6.687379
        -46.03335 -9.355953 -8.810862 -48.254074 -10.954663 -11.351591
        -50.38405 -12.865144 -14.38024 -52.25376 -15.109705 -17.944437
        -53.623802 -17.677263 -22.033535 -54.197037 -20.501236 -26.531454
        -53.6641 -23.438196 -31.168613 -51.789543 -26.258554 -35.496735
        -48.525246 -28.663927 -38.91852 -44.108055 -30.340502 -40.793785
        -39.079903 -31.040205 -40.606125 -34.19003 -30.658112 -38.124947
        -30.203445 -29.267363 -33.480114 -27.701069 -27.091742 -27.10581
        -26.96236 -24.43138 -19.586048 -0.29990005 -0.36680984 0.7255516
        -0.25065422 -0.36814976 0.6364403 -0.19827652 -0.36470222 0.5733118
        -0.15003395 -0.35815525 0.53201294 -0.10938931 -0.35014486 0.5070424
        -0.07721138 -0.3418951 0.49333048 -9.455947 -0.5594242 3.2983463
        -9.786703 -0.57001853 3.3775802 -10.128065 -0.5812225 3.456822
        -10.480477 -0.59310806 3.5358174 -10.844447 -0.60575736 3.614285
        -11.220548 -0.619264 3.6919096 -11.609433 -0.6337346 3.7683392
        -12.011848 -0.6492907 3.8431745 -12.428639 -0.66607064 3.9159632
        -12.860762 -0.6842316 3.986188 -13.309294 -0.7039524 4.0532537
        -13.775451 -0.7254365 4.1164722 -14.260587 -0.748915 4.1750493
        -14.766212 -0.77465105 4.2280593 -15.29399 -0.8029437 4.274432
        -15.845751 -0.83413404 4.312924 -16.42349 -0.8686104 4.342099
        -17.029375 -0.9068168 4.360306 -17.665737 -0.94926125 4.365651
        -18.335075 -0.99652714 4.35598 -19.04007 -1.0492871 4.328852
        -19.783575 -1.1083198 4.28152 -20.56864 -1.1745325 4.2109017
        -21.398533 -1.2489884 4.1135464 -22.276777 -1.3329432 3.9855971
        -23.207195 -1.4278907 3.8227158 -24.193953 -1.5356214 3.6199965
        -25.241636 -1.658301 3.371847 -26.355286 -1.798568 3.0718274
        -27.540462 -1.9596629 2.7124567 -28.803284 -2.1455994 2.284975
        -30.15051 -2.361387 1.7790551 -31.589615 -2.61333 1.1824214
        -33.128906 -2.9094198 0.48030365 -34.77768 -3.2598517 -0.3453933
        -36.54613 -3.6776738 -1.317354 -38.445 -4.179587 -2.4647472
        -40.484135 -4.78683 -3.825832 -42.669403 -5.5260386 -5.4511404
        -44.996674 -6.429775 -7.4066606 -47.441666 -7.5361633 -9.775467
        -49.944733 -8.886716 -12.655108 -52.39104 -10.521029 -16.146448
        -54.589493 -12.466536 -20.32854 -56.258995 -14.722203 -25.214884
        -57.037052 -17.236542 -30.69145 -56.529907 -19.884739 -36.44888
        -54.4174 -22.455835 -41.939827 -50.60052 -24.665993 -46.407578
        -45.336346 -26.209652 -49.021507 -39.274925 -26.842068 -49.10307
        -33.3372 -26.460354 -46.352142 -28.463533 -25.139793 -40.951748
        -25.35195 -23.104465 -33.488106 -24.311388 -20.649616 -24.73456
        -0.2916584 -0.4607916 0.7199421 -0.23888397 -0.4382925 0.62890244
        -0.18471336 -0.41554642 0.5660982 -0.13625908 -0.39417887 0.52627087
        -0.09654045 -0.37523174 0.50311327 -0.065885544 -0.35914564 0.49103785
        -9.471677 -0.46816537 3.3015296 -9.803182 -0.47513896 3.3805015
        -10.145361 -0.4825197 3.4594488 -10.498667 -0.49035603 3.5381157
        -10.863614 -0.49870324 3.6162193 -11.240788 -0.50762457 3.693443
        -11.630859 -0.51719195 3.769433 -12.034584 -0.5274876 3.8437881
        -12.452823 -0.5386049 3.9160538 -12.886552 -0.55065054 3.9857087
        -13.336871 -0.5637456 4.052154 -13.805019 -0.57802826 4.114697
        -14.292379 -0.5936555 4.172536 -14.800488 -0.6108067 4.2247376
        -15.33105 -0.62968564 4.2702208 -15.885934 -0.65052557 4.307728
        -16.467184 -0.67359215 4.335808 -17.077019 -0.6991904 4.352786
        -17.717834 -0.7276696 4.356745 -18.392208 -0.7594324 4.345496
        -19.102905 -0.79494405 4.316561 -19.852886 -0.8347452 4.2671413
        -20.645325 -0.8794677 4.1940937 -21.483646 -0.9298545 4.09389
        -22.371563 -0.9867872 3.9625752 -23.313131 -1.0513176 3.7956836
        -24.312817 -1.1247128 3.5881486 -25.375563 -1.2085116 3.3341622
        -26.506884 -1.3045971 3.0270016 -27.712929 -1.415295 2.6588101
        -29.000586 -1.5434997 2.22032 -30.37759 -1.6928446 1.7005126
        -31.852701 -1.8679314 1.0861491 -33.435917 -2.0746317 0.36111063
        -35.138706 -2.320489 -0.49462736 -36.97412 -2.6152358 -1.5065472
        -38.95651 -2.9714355 -2.7079008 -41.10018 -3.4052258 -4.142916
        -43.416206 -3.9370763 -5.870797 -45.905975 -4.5923553 -7.96991
        -48.549908 -5.401285 -10.540514 -51.290184 -6.397565 -13.70293
        -54.007294 -7.6145782 -17.58609 -56.493664 -9.077627 -22.299536
        -58.433853 -10.791067 -27.882374 -59.408722 -12.720179 -34.22747
        -58.94822 -14.771277 -40.994263 -56.6525 -16.778944 -47.54754
        -52.371136 -18.514416 -52.9821 -46.3751 -19.7269 -56.28501
        -39.41195 -20.213861 -56.620354 -32.561302 -19.891321 -53.62068
        -26.925106 -18.824389 -47.5226 -23.306328 -17.20107 -39.061653
        -22.035547 -15.265499 -29.192993 -8.465729 -5.138889 -6.3519554
        -0.20404243 -0.509017 0.598444 -0.15335464 -0.46541834 0.5445709
        -0.109375 -0.42859125 0.5119772 -0.074329376 -0.3986082 0.49426937
        -0.048056602 -0.37485576 0.48606014 -9.4811945 -0.37624064 3.3038402
        -9.813153 -0.3795388 3.3826613 -10.155826 -0.38303655 3.461439
        -10.50967 -0.3867584 3.5399158 -10.87521 -0.39073232 3.617808
        -11.253035 -0.39499032 3.694799 -11.643822 -0.39956895 3.7705326
        -12.048338 -0.40451 3.8446074 -12.467452 -0.40986115 3.9165664
        -12.902154 -0.41567683 3.9858868 -13.353557 -0.4220192 4.051967
        -13.822911 -0.42895907 4.1141124 -14.311618 -0.4365775 4.171515
        -14.821235 -0.4449668 4.2232385 -15.353485 -0.45423275 4.2681932
        -15.910267 -0.4644963 4.3051147 -16.49365 -0.4758962 4.332542
        -17.10589 -0.48859185 4.348786 -17.74942 -0.50276685 4.3519135
        -18.426867 -0.5186336 4.3397164 -19.141048 -0.53643835 4.3096914
        -19.894993 -0.556469 4.259009 -20.691957 -0.57906324 4.1844873
        -21.53546 -0.6046198 4.082549 -22.429338 -0.633615 3.949178
        -23.3778 -0.666619 3.77983 -24.385496 -0.704322 3.5693297
        -25.457617 -0.74756545 3.311737 -26.59997 -0.79738474 3.0001454
        -27.819103 -0.8550625 2.6264553 -29.122404 -0.92220217 2.1810684
        -30.518265 -1.0008247 1.6525123 -32.016304 -1.0934987 1.0269132
        -33.627644 -1.2035116 0.28725576 -35.365253 -1.335103 -0.5877825
        -37.244133 -1.493759 -1.6255732 -39.281128 -1.6865847 -2.8621473
        -41.493687 -1.9227431 -4.345833 -43.89661 -2.2139068 -6.1418476
        -46.49533 -2.574613 -8.337216 -49.273994 -3.0223055 -11.044377
        -52.176704 -3.576604 -14.400036 -55.081554 -4.257208 -18.553665
        -57.77054 -5.0795336 -23.637764 -59.905014 -6.047298 -29.711632
        -61.02617 -7.1419134 -36.675552 -60.60913 -8.310545 -44.16886
        -58.195145 -9.457845 -51.49367 -53.594177 -10.449983 -57.635284
        -47.085228 -11.138875 -61.443916 -39.486336 -11.405014 -61.964493
        -31.993809 -11.201179 -58.77908 -25.82768 -10.568534 -52.16672
        -21.865938 -9.619815 -42.97739 -20.451553 -8.500391 -32.303253
        -16.932888 -5.9241023 -16.532871 -0.1465149 -0.56662464 0.5450001
        -0.10503578 -0.50514793 0.50909805 -0.07032776 -0.45541024 0.48955917
        -0.04368782 -0.41644502 0.4808712 -0.024499893 -0.38660192 0.47862005
        -9.484356 -0.2839862 3.3051732 -9.816464 -0.28358176 3.3839533
        -10.159303 -0.28316697 3.462683 -10.513327 -0.28274202 3.5411057
        -10.879063 -0.28230727 3.6189365 -11.257106 -0.28186315 3.6958592
        -11.648131 -0.28141043 3.7715168 -12.052914 -0.28095007 3.8455074
        -12.472322 -0.28048334 3.9173737 -12.907351 -0.28001198 3.986592
        -13.359118 -0.2795381 4.0525603 -13.82888 -0.27906448 4.1145816
        -14.318044 -0.27859464 4.171848 -14.828172 -0.27813306 4.22342
        -15.360998 -0.2776853 4.268207 -15.918426 -0.2772584 4.3049407
        -16.50254 -0.27686107 4.3321557 -17.115604 -0.2765043 4.34816
        -17.76007 -0.27620187 4.3510127 -18.438581 -0.27597076 4.3385
        -19.153973 -0.27583247 4.308108 -19.909302 -0.27581382 4.256997
        -20.707853 -0.27594838 4.18197 -21.553185 -0.27627742 4.0794325
        -22.449183 -0.2768553 3.9453442 -23.400108 -0.27774796 3.7751293
        -24.410688 -0.27903935 3.5635753 -25.486208 -0.2808352 3.3046873
        -26.632599 -0.2832694 2.9914885 -27.856556 -0.28651154 2.6157842
        -29.165672 -0.29077643 2.1678448 -30.568605 -0.29633608 1.6360153
        -32.075317 -0.30353564 1.006171 -33.697388 -0.3128122 0.2609272
        -35.448395 -0.3247175 -0.6215584 -37.344124 -0.3399439 -1.6694319
        -39.40243 -0.35935587 -2.9198587 -41.64205 -0.384015 -4.422841
        -44.0793 -0.4151957 -6.2460485 -46.72128 -0.45437372 -8.480062
        -49.553673 -0.5031486 -11.242303 -52.521397 -0.5630685 -14.676197
        -55.501682 -0.635286 -18.939701 -58.272324 -0.72005963 -24.174797
        -60.485283 -0.81607616 -30.449183 -61.66558 -0.91974103 -37.666298
        -61.26586 -1.0245173 -45.457165 -58.803276 -1.1206036 -53.09782
        -54.0717 -1.1954439 -59.52788 -47.35376 -1.2361329 -63.540413
        -39.49682 -1.2340381 -64.131134 -31.745596 -1.1901699 -60.862305
        -25.369541 -1.1117038 -54.03237 -21.276285 -1.0094068 -44.540504
        -19.812101 -0.8975174 -33.53622 -19.393637 -0.78101337 -20.518404
        -0.072244644 -0.5980164 0.4750538 -0.044483185 -0.52623415 0.46388054
        -0.02275467 -0.46925336 0.46163273 -0.007270813 -0.42538428 0.46446133
        0.0028839111 -0.3923096 0.46959448 -9.481112 -0.19174029 3.3054936
        -9.813067 -0.18763368 3.3843403 -10.155737 -0.18330672 3.4631433
        -10.50958 -0.17873535 3.5416467 -10.875117 -0.17389226 3.6195655
        -11.252941 -0.1687464 3.6965833 -11.643728 -0.16326264 3.7723439
        -12.048245 -0.15740107 3.846446 -12.467363 -0.15111665 3.918432
        -12.902071 -0.14435822 3.9877796 -13.35348 -0.13706796 4.0538874
        -13.822847 -0.12918057 4.116059 -14.311568 -0.12062196 4.173487
        -14.821207 -0.11130856 4.225235 -15.353485 -0.10114574 4.2702127
        -15.910303 -0.09002628 4.307155 -16.493734 -0.07782887 4.3345995
        -17.106033 -0.0644159 4.3508573 -17.749643 -0.049630668 4.3539934
        -18.42719 -0.033294827 4.341798 -19.1415 -0.015204055 4.3117647
        -19.895605 0.0048764143 4.261062 -20.69278 0.027218198 4.1865053
        -21.536549 0.052138776 4.0845094 -22.430767 0.0800076 3.951053
        -23.379663 0.11126547 3.7815788 -24.38792 0.14643797 3.5709026
        -25.460758 0.18615964 3.3130615 -26.604042 0.23120409 3.0011253
        -27.824375 0.2825238 2.626955 -29.129227 0.341305 2.1809
        -30.527107 0.4090415 1.6514117 -32.02777 0.487634 1.0245101
        -33.642532 0.579531 0.28302073 -35.384605 0.68791515 -0.5946065
        -37.269287 0.8169528 -1.636068 -39.313824 0.9721173 -2.8778803
        -41.536118 1.1605787 -4.369051 -43.9515 1.3916423 -6.1757727
        -46.565918 1.6771451 -8.386437 -49.36393 2.0316532 -11.115322
        -52.289658 2.4720936 -14.501503 -55.2205 3.0163176 -18.697262
        -57.9364 3.679666 -23.837967 -60.0948 4.4687614 -29.98494
        -61.230827 5.3721256 -37.03822 -60.81195 6.3492045 -44.632545
        -58.372215 7.322508 -52.059475 -53.718163 8.180522 -58.288044
        -47.132435 8.797619 -62.14993 -39.444576 9.06879 -62.676086
        -31.86786 8.945384 -59.44564 -25.639446 8.455856 -52.747673
        -21.645113 7.6933002 -43.450634 -20.226286 6.7782364 -32.665993
        -16.72979 4.44524 -16.786242 0.008262634 -0.59565234 0.40048409
        0.020393372 -0.52387285 0.41620636 0.02769661 -0.46711707 0.4324646
        0.031000137 -0.42357314 0.44746208 0.031419754 -0.39084077 0.46030903
        -9.471512 -0.099841274 3.304835 -9.803011 -0.092060365 3.3838575
        -10.145184 -0.08385159 3.4628563 -10.498485 -0.07516691 3.5415754
        -10.863428 -0.065951556 3.619732 -11.240602 -0.056143377 3.6970096
        -11.630672 -0.0456717 3.7730536 -12.034399 -0.034456324 3.8474636
        -12.452644 -0.022406168 3.9197834 -12.886384 -0.009417952 3.989493
        -13.336719 0.004625286 4.055992 -13.804889 0.019856296 4.118588
        -14.292279 0.036425553 4.1764784 -14.80043 0.054503508 4.2287292
        -15.331046 0.07428357 4.2742577 -15.886002 0.09598518 4.3118067
        -16.467344 0.11985759 4.339922 -17.077297 0.14618443 4.356928
        -17.71827 0.17528932 4.3609047 -18.392841 0.20754212 4.34966
        -19.103788 0.24336748 4.32071 -19.854088 0.28325534 4.271252
        -20.646936 0.32777452 4.1981354 -21.485779 0.37759024 4.09782
        -22.374365 0.43348277 3.9663372 -23.316784 0.49638167 3.7992027
        -24.31756 0.56739974 3.591323 -25.381712 0.6478811 3.3368537
        -26.514841 0.73946613 3.0290213 -27.723217 0.844175 2.6598969
        -29.013887 0.9645194 2.2201111 -30.394798 1.1036544 1.6985002
        -31.874983 1.2655826 1.0816207 -33.464783 1.4554296 0.35305178
        -35.176132 1.6798167 -0.50765705 -37.02266 1.9473455 -1.5266091
        -39.019405 2.2692056 -2.7379508 -41.181534 2.6599128 -4.187176
        -43.52105 3.1380682 -5.935294 -46.04023 3.7270148 -8.063154
        -48.72016 4.4549665 -10.67434 -51.502907 5.3539963 -13.893404
        -54.267464 6.4568067 -17.854183 -56.802322 7.7897215 -22.671097
        -58.78476 9.360626 -28.386457 -59.78457 11.141479 -34.892113
        -59.3181 13.048662 -41.83881 -56.973026 14.929922 -48.572372
        -52.593346 16.571527 -54.159 -46.45715 17.736727 -57.553993
        -39.333183 18.23123 -57.897667 -32.3314 17.969893 -54.817863
        -26.582062 17.009218 -48.568462 -22.902567 15.523753 -39.916805
        -21.621706 13.741426 -29.851671 -8.112583 3.8818183 -6.7747574
        0.0830307 -0.5605984 0.33473587 0.08077431 -0.49873018 0.3741989
        0.07475281 -0.44940805 0.40681458 0.066776276 -0.41124654 0.43257904
        0.058177948 -0.3823204 0.45224762 -9.455699 -0.0086252075 3.3033006
        -9.786447 0.002774473 3.3826106 -10.127799 0.014804574 3.461929
        -10.480205 0.027536668 3.541003 -10.84417 0.041052215 3.61955
        -11.220266 0.055444025 3.6972551 -11.609153 0.07081739 3.7737656
        -12.011572 0.08729205 3.8486824 -12.42837 0.10500391 3.921553
        -12.860507 0.12410714 3.9918594 -13.309062 0.14477657 4.0590053
        -13.775251 0.16721049 4.122304 -14.260432 0.19163357 4.180958
        -14.766117 0.21830079 4.234042 -15.293975 0.24750116 4.2804832
        -15.84584 0.27956274 4.319038 -16.423717 0.3148582 4.3482676
        -17.029776 0.35381156 4.366517 -17.66636 0.39690647 4.37189
        -18.335987 0.44469565 4.3622265 -19.041348 0.49781364 4.33508
        -19.785318 0.5569924 4.287695 -20.570978 0.6230802 4.2169776
        -21.401627 0.69706917 4.1194625 -22.280836 0.7801221 3.9912732
        -23.212484 0.8736214 3.8280425 -24.20082 0.9792186 3.6248293
        -25.250525 1.0989057 3.3759875 -26.366768 1.235106 3.0750043
        -27.555279 1.3907943 2.7142994 -28.822405 1.5696539 2.2849703
        -30.175184 1.7762899 1.7764884 -31.621466 2.0165095 1.17629