<?xml version="1.0"?>
<VTKFile type="StructuredGrid" version="0.1" byte_order="LittleEndian" header_type="UInt32" compressor="vtkZLibDataCompressor">
  <StructuredGrid WholeExtent="0 60 0 20 0 20">
  <Piece Extent="0 60 0 20 0 20">
    <PointData Vectors="B_total">
      <DataArray type="Float32" Name="B_total" NumberOfComponents="3" format="ascii" RangeMin="0" RangeMax="57087.37332584757">
        -9.821834 -1.3796034 3.2192793 -10.154645 -1.4174987 3.3057845
        -10.496661 -1.4569622 3.3929436 -10.848124 -1.4981743 3.480475
        -11.209317 -1.5413431 3.5680606 -11.580572 -1.5867075 3.6553416
        -11.962269 -1.6345406 3.741913 -12.354852 -1.6851535 3.8273172
        -12.758831 -1.7389002 3.9110367 -13.174794 -1.7961816 3.9924853
        -13.603406 -1.8574501 4.0709996 -14.04542 -1.923216 4.145828
        -14.501677 -1.9940526 4.2161174 -14.973111 -2.0706034 4.2809024
        -15.460746 -2.1535892 4.339093 -15.965692 -2.2438164 4.3894606
        -16.489136 -2.3421867 4.430626 -17.03233 -2.4497082 4.46105
        -17.596584 -2.5675082 4.4790254 -18.183226 -2.6968489 4.4826736
        -18.793604 -2.8391454 4.4699426 -19.429031 -2.9959893 4.438612
        -20.09078 -3.169176 4.3863015 -20.780024 -3.3607376 4.3104835
        -21.49781 -3.5729823 4.208495 -22.244997 -3.8085399 4.0775576
        -23.022211 -4.0704265 3.9147856 -23.829737 -4.3620925 3.7172186
        -24.667402 -4.6875014 3.481843 -25.53444 -5.0512056 3.2056472
        -26.429262 -5.458426 2.885712 -27.349236 -5.9151335 2.5193489
        -28.29039 -6.428124 2.1043317 -29.247108 -7.005068 1.6391872
        -30.211842 -7.6545267 1.1235919 -31.174828 -8.3858595 0.5588096
        -32.123833 -9.208991 -0.051831156 -33.043957 -10.133903 -0.70248127
        -33.917416 -11.169733 -1.3843343 -34.72338 -12.323299 -2.0851986
        -35.43786 -13.59693 -2.7889433 -36.033916 -14.985483 -3.4746425
        -36.4826 -16.472738 -4.1152234 -36.75531 -18.02756 -4.675582
        -36.828354 -19.600765 -5.1105423 -36.690037 -21.123909 -5.3635674
        -36.349804 -22.511501 -5.367473 -35.84755 -23.667564 -5.048281
        -35.260124 -24.496521 -4.332484 -28.22736 -20.309551 -2.44719
        0.08342886 -0.11193466 0.6743355 0.039913416 -0.09595013 0.68111515
        -0.0048065186 -0.09193516 0.67720985 -0.045640945 -0.09936237 0.6636491
        -0.07868433 -0.11606216 0.64282703 -0.10182905 -0.13895416 0.61780906
        -0.11480713 -0.16479015 0.59162104 -0.11877012 -0.19078445 0.56670785
        -0.11566639 -0.21492958 0.5447087 -0.10769081 -0.23603392 0.52643293
        -0.0968442 -0.25362062 0.5120564 -9.862994 -1.285044 3.2123728
        -10.197477 -1.3198591 3.2972317 -10.541348 -1.3561289 3.382599
        -10.894876 -1.3940207 3.4681907 -11.258376 -1.4337273 3.553684
        -11.632212 -1.4754704 3.6387167 -12.016803 -1.5195036 3.7228792
        -12.412636 -1.5661165 3.8057094 -12.820268 -1.6156375 3.886685
        -13.240335 -1.6684406 3.965213 -13.67356 -1.7249476 4.0406227
        -14.12076 -1.7856352 4.1121516 -14.582845 -1.8510406 4.178935
        -15.060822 -1.9217677 4.239992 -15.555798 -1.9984958 4.2942114
        -16.068975 -2.0819871 4.3403397 -16.601645 -2.1730978 4.3769665
        -17.15517 -2.27279 4.4025135 -17.730991 -2.3821442 4.415224
        -18.33058 -2.5023797 4.413158 -18.955448 -2.634874 4.394188
        -19.607105 -2.7811875 4.355997 -20.28704 -2.9430966 4.296086
        -20.996685 -3.122632 4.211773 -21.737396 -3.322126 4.100205
        -22.510378 -3.5442655 3.9583583 -23.31668 -3.7921722 3.783037
        -24.157066 -4.069466 3.570886 -25.031935 -4.3803706 3.318398
        -25.94116 -4.7298155 3.0219393 -26.883905 -5.123563 2.67781
        -27.85838 -5.5683393 2.2823527 -28.86155 -6.0719843 1.8321197
        -29.888828 -6.64359 1.3241111 -30.933712 -7.293603 0.7560711
        -31.987406 -8.033863 0.12682492 -33.03835 -8.877455 -0.5633621
        -34.07169 -9.838286 -1.3124224 -35.06852 -10.930162 -2.1160655
        -36.004974 -12.165171 -2.9671874 -36.851215 -13.551088 -3.854853
        -37.57066 -15.087651 -4.762515 -38.120216 -16.76173 -5.6651874
        -38.45262 -18.541843 -6.5255485 -38.522247 -20.373062 -7.2896357
        -38.295128 -22.174114 -7.883621 -37.762844 -23.838884 -8.213877
        -36.95752 -25.244343 -8.172534 -35.96313 -26.265299 -7.649326
        -34.917645 -26.793938 -6.548013 -34.002014 -26.758991 -4.8026085
        0.051455736 -0.067985535 0.7467861 -0.006947994 -0.06262207 0.7418704
        -0.05974245 -0.07189846 0.72278357 -0.1014905 -0.092775345 0.69328165
        -0.12948513 -0.12105942 0.65809727 -0.14376831 -0.15241337 0.6217699
        -0.14632607 -0.18329906 0.58781147 -0.14011478 -0.2113204 0.5584046
        -0.12823582 -0.23520947 0.534487 -0.11337566 -0.2545948 0.51608026
        -9.895899 -1.1852378 3.2038145 -10.231782 -1.2167376 3.287163
        -10.577215 -1.2495655 3.370896 -10.932498 -1.2838744 3.454725
        -11.297971 -1.3198408 3.5383258 -11.67403 -1.3576673 3.6213331
        -12.061131 -1.3975862 3.7033348 -12.459799 -1.4398624 3.783865
        -12.870634 -1.4847975 3.8623981 -13.294321 -1.5327343 3.9383368
        -13.731636 -1.5840608 4.0110035 -14.183453 -1.6392162 4.079629
        -14.650744 -1.6986958 4.143337 -15.134594 -1.7630588 4.2011333
        -15.636188 -1.8329349 4.251891 -16.156815 -1.9090341 4.294334
        -16.697863 -1.9921563 4.3270235 -17.260815 -2.0832047 4.3483453
        -17.84723 -2.1831996 4.3564987 -18.458735 -2.2932985 4.3494864
        -19.097006 -2.4148166 4.325108 -19.76375 -2.5492566 4.2809563
        -20.460686 -2.698342 4.2144127 -21.189528 -2.8640614 4.12265
        -21.95194 -3.0487173 4.0026207 -22.749546 -3.2549994 3.8510518
        -23.583834 -3.4860532 3.6644325 -24.456121 -3.745581 3.4390016
        -25.367464 -4.037956 3.170729 -26.318512 -4.3683615 2.8553162
        -27.309345 -4.742951 2.4882143 -28.339256 -5.1690445 2.0646768
        -29.406471 -5.655342 1.5798602 -30.50784 -6.212167 1.0289564
        -31.638435 -6.8516827 0.407364 -32.791092 -7.5880747 -0.28914562
        -33.95572 -8.437564 -1.0642563 -35.11837 -9.418127 -1.9209158
        -36.25989 -10.548678 -2.8610284 -37.35408 -11.84742 -3.8847656
        -38.36543 -13.328981 -4.989072 -39.24696 -14.999977 -6.164836
        -39.939194 -16.852943 -7.392179 -40.37185 -18.858776 -8.633785
        -40.470673 -20.959082 -9.827154 -40.170864 -23.060562 -10.878007
        -39.437244 -25.034794 -11.658504 -38.287727 -26.726871 -12.014212
        -36.8128 -27.974606 -11.782137 -35.181618 -28.636114 -10.817891
        -33.62729 -28.618542 -9.0243845 -32.411728 -27.89775 -6.371148
        -0.009284496 -0.038301468 0.8254185 -0.077100754 -0.049268723 0.7987757
        -0.12937927 -0.07444286 0.75737715 -0.16280174 -0.10817146 0.7084527
        -0.17797756 -0.14491463 0.65869427 -0.17812157 -0.18033028 0.6130421
        -0.16762352 -0.2116642 0.5743239 -0.15074444 -0.2376666 0.5435313
        -0.13097572 -0.25818014 0.5203705 -9.92155 -1.0807304 3.193688
        -10.258583 -1.1087085 3.2756605 -10.605317 -1.1378767 3.3579116
        -10.96207 -1.1683724 3.440151 -11.329209 -1.2003537 3.5220532
        -11.707161 -1.2340031 3.6032507 -12.096413 -1.2695291 3.68333
        -12.497523 -1.3071705 3.761824 -12.911133 -1.3471986 3.8382032
        -13.337971 -1.3899226 3.9118676 -13.778862 -1.4356928 3.9821358
        -14.234734 -1.4849061 4.048231 -14.706621 -1.5380117 4.1092706
        -15.195672 -1.595517 4.164249 -15.703147 -1.6579958 4.2120237
        -16.230421 -1.7260962 4.2513003 -16.778978 -1.8005518 4.2806153
        -17.350407 -1.8821932 4.298324 -17.946392 -1.9719646 4.3025837
        -18.568703 -2.0709414 4.2913456 -19.219183 -2.1803539 4.2623415
        -19.89974 -2.301616 4.2130785 -20.61233 -2.4363618 4.1408277
        -21.358938 -2.5864897 4.0426145 -22.141577 -2.7542186 3.9152071
        -22.962275 -2.9421625 3.7550871 -23.82301 -3.1534085 3.5584292
        -24.725704 -3.3916297 3.321061 -25.672129 -3.6612163 3.0384195
        -26.663818 -3.9674363 2.7055144 -27.701918 -4.3166375 2.3168979
        -28.787 -4.716485 1.8666484 -29.91885 -5.1762576 1.348376
        -31.096142 -5.7071705 0.7552277 -32.31607 -6.322735 0.07987139
        -33.573795 -7.039094 -0.6855558 -34.86158 -7.875239 -1.5495605
        -36.167473 -8.852951 -2.5213947 -37.473274 -9.99621 -3.6109881
        -38.751617 -11.329676 -4.8283057 -39.962193 -12.875755 -6.1814804
        -41.047665 -14.649698 -7.672874 -41.930527 -16.652306 -9.292147
        -42.5134 -18.860277 -11.005925 -42.68607 -21.215347 -12.745054
        -42.34246 -23.614948 -14.392503 -41.40869 -25.908857 -15.777433
        -39.8786 -27.907581 -16.682722 -37.846092 -29.405935 -16.870813
        -35.518955 -30.2204 -16.126688 -33.200768 -30.230171 -14.306054
        -31.239326 -29.407011 -11.370231 -24.57048 -22.821098 -5.8943205
        -0.09738541 -0.037967682 0.89258194 -0.16207123 -0.06663704 0.8355131
        -0.20131111 -0.10487366 0.76872206 -0.2166853 -0.14584827 0.7018738
        -0.2132616 -0.18444347 0.6417346 -0.19720745 -0.21771145 0.59183025
        -0.17425728 -0.24452448 0.5530391 -0.14880657 -0.26501942 0.52454364
        -9.941025 -0.97207034 3.1824875 -10.278994 -0.9963462 3.263224
        -10.62679 -1.0216635 3.344151 -10.984758 -1.0481429 3.4249775
        -11.353285 -1.0759236 3.5053768 -11.732823 -1.1051654 3.5849807
        -12.123888 -1.1360519 3.6633747 -12.52707 -1.1687927 3.7400906
        -12.943046 -1.203627 3.8145974 -13.372584 -1.2408268 3.8862934
        -13.816553 -1.2807016 3.954493 -14.275929 -1.3236016 4.018416
        -14.751803 -1.3699247 4.0771723 -15.245381 -1.4201206 4.1297483
        -15.757997 -1.4746993 4.1749897 -16.2911 -1.5342389 4.2115846
        -16.846262 -1.5993952 4.2380505 -17.425177 -1.6709136 4.2527122
        -18.029642 -1.7496451 4.253693 -18.661568 -1.8365633 4.2388964
        -19.322958 -1.9327875 4.2059927 -20.015911 -2.0396125 4.15241
        -20.742613 -2.1585422 4.0753155 -21.505333 -2.2913375 3.971599
        -22.306414 -2.4400702 3.8378513 -23.148296 -2.6072 3.6703196
        -24.033466 -2.795657 3.4648745 -24.96446 -3.008961 3.2169397
        -25.943817 -3.2513595 2.9214268 -26.974009 -3.5280075 2.57265
        -28.057343 -3.845193 2.1642413 -29.19584 -4.2106147 1.6890597
        -30.39106 -4.63373 1.1390738 -31.643833 -5.1261616 0.50521064
        -32.953953 -5.702181 -0.22287494 -34.31956 -6.3791885 -1.0571645
        -35.73616 -7.17816 -2.0117452 -37.194954 -8.1238575 -3.1033607
        -38.680134 -9.2445545 -4.351748 -40.1648 -10.570835 -5.7792687
        -41.60542 -12.132851 -7.4089017 -42.935257 -13.955266 -9.259285
        -44.05831 -16.049118 -11.33533 -44.846954 -18.400257 -13.613436
        -45.148026 -20.955156 -16.021912 -44.80274 -23.606983 -18.420404
        -43.68412 -26.187904 -20.58662 -41.748486 -28.475449 -22.222054
        -39.08685 -30.219858 -22.987219 -35.952087 -31.191772 -22.56663
        -32.738575 -31.238178 -20.74676 -29.908646 -30.324636 -17.475172
        -27.888584 -28.544039 -12.871599 -3.930788 -3.7424126 -0.15977669
        -0.19795227 -0.07668114 0.9253063 -0.24315834 -0.11684418 0.83660316
        -0.2579584 -0.15927792 0.7492528 -0.24976349 -0.19837666 0.6722069
        -0.22707558 -0.23115063 0.60964537 -0.19724178 -0.2567296 0.5621221
        -0.16563416 -0.27557373 0.52804494 -9.955396 -0.85983217 3.170986
        -10.294108 -0.8802494 3.2506394 -10.64276 -0.9015501 3.330412
        -11.001711 -0.923837 3.4100118 -11.37137 -0.9472286 3.4891117
        -11.752212 -0.97186106 3.5673435 -12.144773 -0.99789083 3.6442924
        -12.549679 -1.0254967 3.7194893 -12.96763 -1.0548829 3.7924037
        -13.399433 -1.0862817 3.862431 -13.845994 -1.1199576 3.9288845
        -14.308331 -1.1562108 3.99098 -14.787583 -1.1953825 4.0478225
        -15.285013 -1.237859 4.0983915 -15.802013 -1.2840799 4.141522
        -16.340103 -1.3345436 4.1758904 -16.90094 -1.3898177 4.199995
        -17.4863 -1.4505503 4.2121367 -18.098095 -1.5174822 4.2104077
        -18.738358 -1.5914652 4.1926694 -19.409245 -1.6734836 4.1565385
        -20.11303 -1.7646798 4.099372 -20.85212 -1.8663894 4.018243
        -21.629042 -1.9801843 3.909917 -22.446465 -2.107926 3.770823
        -23.307224 -2.2518377 3.596992 -24.214298 -2.4145894 3.3840084
        -25.170835 -2.5994108 3.126919 -26.180134 -2.8102353 2.8201306
        -27.245617 -3.0518801 2.4572875 -28.370806 -3.3302855 2.0311246
        -29.559221 -3.6528053 1.5332842 -30.814323 -4.02859 0.9540783
        -32.13933 -4.46905 0.28215373 -33.53694 -4.988406 -0.49600226
        -35.00879 -5.604318 -1.3967617 -36.554367 -6.3385077 -2.440309
        -38.1691 -7.2172422 -3.6517365 -39.841003 -8.271429 -5.062026
        -41.5455 -9.535849 -6.7082047 -43.237923 -11.046862 -8.631512
        -44.844086 -12.837631 -10.871732 -46.25048 -14.929728 -13.455397
        -47.297928 -17.320354 -16.375912 -47.78497 -19.965319 -19.565378
        -47.489685 -22.760658 -22.862331 -46.21697 -25.529654 -25.986677
        -43.869835 -28.025646 -28.54013 -40.526844 -29.96104 -30.05102
        -36.489937 -31.064386 -30.068523 -32.264153 -31.151426 -28.282883
        -28.456211 -30.180756 -24.620722 -25.624607 -28.266594 -19.265877
        -24.145792 -25.640347 -12.591161 -0.23353577 -0.11243057 1.0200195
        -0.28463554 -0.14977741 0.90663433 -0.29813576 -0.18901157 0.79664516
        -0.2844057 -0.22438812 0.70146465 -0.2545185 -0.2531457 0.62578917
        -0.21758556 -0.27474785 0.5695627 -0.17987537 -0.28991795 0.5301688
        -9.965651 -0.7446177 3.1600876 -10.304938 -0.7610444 3.238827
        -10.654258 -0.7781881 3.3176286 -11.013984 -0.7961327 3.396201
        -11.384542 -0.81497455 3.4742165 -11.766421 -0.83482504 3.5513072
        -12.160188 -0.8558116 3.6270585 -12.56648 -0.87808037 3.701001
        -12.98603 -0.90179807 3.7726033 -13.419672 -0.92715496 3.8412614
        -13.868345 -0.95436734 3.906286 -14.333104 -0.9836815 3.9668908
        -14.815127 -1.0153772 4.022177 -15.315726 -1.0497721 4.0711184
        -15.836343 -1.0872282 4.1125426 -16.37856 -1.128157 4.1451144
        -16.944098 -1.1730281 4.167316 -17.534817 -1.2223788 4.1774316
        -18.152725 -1.2768258 4.173524 -18.799961 -1.3370801 4.1534195
        -19.478817 -1.4039663 4.114691 -20.191725 -1.4784455 4.0546303
        -20.94128 -1.5616467 3.970232 -21.730253 -1.654904 3.8581529
        -22.561602 -1.7598064 3.7146783 -23.438524 -1.8782609 3.535648
        -24.364452 -2.0125723 3.3163927 -25.343102 -2.165546 3.051618
        -26.378487 -2.340623 2.7352762 -27.474941 -2.5420513 2.360397
        -28.637142 -2.7751122 1.9188814 -29.870096 -3.0464077 1.4012321
        -31.17915 -3.3642387 0.79618025 -32.56993 -3.7390738 0.09016676
        -34.04817 -4.1841354 -0.7334278 -35.6192 -4.7160773 -1.6953675
        -37.286957 -5.3557343 -2.8220272 -39.05179 -6.128802 -4.1471663
        -40.90669 -7.0662518 -5.7136955 -42.831062 -8.204041 -7.574645
        -44.78132 -9.581422 -9.7918625 -46.678474 -11.236866 -12.430075
        -48.39397 -13.200184 -15.542996 -49.738186 -15.479629 -19.148232
        -50.45948 -18.043575 -23.189304 -50.26604 -20.798975 -27.488796
        -48.882523 -23.573662 -31.706955 -46.143673 -26.114489 -35.33204
        -42.104237 -28.115253 -37.73369 -37.1152 -29.279171 -38.29252
        -31.807158 -29.400913 -36.5753 -26.956059 -28.433693 -32.479927
        -23.275833 -26.505367 -26.26977 -21.233608 -23.873762 -18.474518
        -6.1184025 -6.023424 -1.9516125 -0.31992912 -0.20744991 0.96969604
        -0.33193207 -0.2370615 0.8376694 -0.31275368 -0.26325798 0.72531414
        -0.27609634 -0.28372812 0.6376858 -0.23275566 -0.29821587 0.57390094
        -0.18976593 -0.3075366 0.5301814 -9.972637 -0.6270432 3.1506906
        -10.312352 -0.63937247 3.2287004 -10.662171 -0.65224516 3.3067303
        -11.02248 -0.6657251 3.3844879 -11.393718 -0.679886 3.461646
        -11.77639 -0.69481266 3.537837 -12.171075 -0.71060246 3.6126463
        -12.578434 -0.7273669 3.6856053 -12.999217 -0.7452336 3.756182
        -13.434282 -0.7643479 3.8237712 -13.884594 -0.7848755 3.8876839
        -14.351236 -0.8070052 3.947131 -14.835421 -0.8309515 4.001212
        -15.338493 -0.8569589 4.048895 -15.861943 -0.88530576 4.089002
        -16.407398 -0.91630924 4.1201897 -16.976637 -0.9503326 4.1409287
        -17.571585 -0.9877916 4.149486 -18.194326 -1.0291653 4.1439037
        -18.84709 -1.0750071 4.121981 -19.532276 -1.1259611 4.081251
        -20.25245 -1.1827804 4.0189576 -21.010376 -1.2463528 3.9320264
        -21.80901 -1.3177315 3.817029 -22.651575 -1.3981755 3.670126
        -23.541563 -1.4892026 3.487004 -24.4828 -1.5926558 3.2627797
        -25.479488 -1.7107905 2.9918718 -26.53627 -1.846387 2.6678467
        -27.65828 -2.0028994 2.2832098 -28.85122 -2.18465 1.8291419
        -30.121433 -2.3970819 1.29515 -31.475992 -2.6470947 0.66857195
        -32.922752 -2.9434683 -0.06612113 -34.47028 -3.2974 -0.92835695
        -36.12751 -3.7231607 -1.9429283 -37.902714 -4.2388277 -3.1419718
        -39.80134 -4.8670487 -4.567446 -41.82185 -5.6356306 -6.273774
        -43.94861 -6.5776167 -8.329771 -46.140926 -7.7302628 -10.818208
        -48.31765 -9.131897 -13.829996 -50.338745 -10.815344 -17.448832
        -51.98793 -12.796381 -21.72129 -52.96624 -15.056355 -26.608942
        -52.91201 -17.52036 -31.925463 -51.465183 -20.037298 -37.275658
        -48.383446 -22.373951 -42.03148 -43.688057 -24.2387 -45.39125
        -37.774044 -25.341984 -46.54708 -31.401228 -25.479975 -44.924335
        -25.525164 -24.604982 -40.38607 -21.025053 -22.843708 -33.284775
        -18.461645 -20.450872 -24.325638 -17.977945 -17.72482 -14.319754
        -0.34176254 -0.28901005 1.0137825 -0.3529873 -0.30195236 0.8643894
        -0.3297577 -0.31324816 0.738924 -0.28811646 -0.3211856 0.6426163
        -0.24022198 -0.32562494 0.5737648 -0.19365025 -0.32720804 0.5274744
        -9.9770355 -0.50772333 3.1435792 -10.317041 -0.5158743 3.2210596
        -10.667207 -0.5243894 3.2985296 -11.02792 -0.5333118 3.3756979
        -11.399632 -0.5426914 3.4522371 -11.78286 -0.55258566 3.52778
        -12.178192 -0.5630606 3.6019123 -12.586303 -0.5741919 3.6741648
        -13.00796 -0.58606625 3.7440062 -13.444036 -0.5987824 3.8108313
        -13.895514 -0.6124531 3.8739495 -14.3635 -0.62720686 3.9325716
        -14.84923 -0.64319015 3.9857938 -15.354077 -0.6605697 4.0325828
        -15.87956 -0.67953604 4.071755 -16.427345 -0.70030653 4.101961
        -16.99925 -0.7231302 4.1216626 -17.597252 -0.7482934 4.1291156
        -18.223488 -0.7761262 4.1223464 -18.880262 -0.807011 4.099133
        -19.57005 -0.8413941 4.0569806 -20.295523 -0.8797986 3.9930959
        -21.059559 -0.9228428 3.904355 -21.865273 -0.9712634 3.7872632
        -22.716076 -1.0259416 3.6378915 -23.615694 -1.0879452 3.451807
        -24.568254 -1.1585746 3.2239654 -25.57834 -1.2394264 2.9485674
        -26.651085 -1.3324776 2.6188836 -27.79225 -1.4401937 2.2270145
        -29.008358 -1.5656744 1.763583 -30.30682 -1.7128437 1.2173163
        -31.696096 -1.8867005 0.5744521 -33.185867 -2.0936468 -0.18210928
        -34.787067 -2.3419037 -1.0740584 -36.511627 -2.642027 -2.1294599
        -38.37158 -3.0075126 -3.3851948 -40.376854 -3.4554434 -4.8900566
        -42.530922 -4.007066 -6.7082033 -44.823124 -4.688044 -8.922058
        -47.21635 -5.5279427 -11.632779 -49.629333 -6.55817 -14.954945
        -51.91439 -7.8072734 -19.000294 -53.834652 -9.292208 -23.844036
        -55.052048 -11.004573 -29.46836 -55.144176 -12.892459 -35.684616
        -53.673935 -14.84254 -42.052814 -50.325294 -16.672623 -47.84161
        -45.082737 -18.148623 -52.090027 -38.37588 -19.033821 -53.809887
        -31.080135 -19.15897 -52.288395 -24.316113 -18.482983 -47.35324
        -19.115208 -17.110252 -39.44237 -16.12212 -15.251064 -29.429426
        -15.479338 -13.149161 -18.309404 -0.34312248 -0.38671112 1.0268345
        -0.3554001 -0.37740946 0.8693485 -0.33099365 -0.36946535 0.73808384
        -0.28752708 -0.36184502 0.63846207 -0.2380104 -0.35432482 0.56822586
        -0.1903553 -0.34705234 0.5217762 -9.979336 -0.38726056 3.139354
        -10.31951 -0.3911792 3.2165153 -10.669873 -0.3952787 3.293649
        -11.030823 -0.399581 3.3704631 -11.402812 -0.40411168 3.446631
        -11.786366 -0.40890017 3.521785 -12.182079 -0.41398036 3.5955114
        -12.590635 -0.41939107 3.6673412 -13.012811 -0.4251769 3.7367432
        -13.449487 -0.43138874 3.803111 -13.90166 -0.43808478 3.865755
        -14.370448 -0.44533148 3.9238846 -14.857102 -0.45320466 3.976595
        -15.363015 -0.46179104 4.02285 -15.889721 -0.47118968 4.0614653
        -16.438908 -0.48151404 4.091086 -17.012423 -0.4928944 4.1101694
        -17.61227 -0.505481 4.116963 -18.240622 -0.51944727 4.109485
        -18.899826 -0.5349952 4.0854993 -19.592413 -0.5523606 4.042495
        -20.321114 -0.5718212 3.9776533 -21.088884 -0.5937059 3.887822
        -21.898933 -0.61840814 3.769462 -22.754795 -0.64639795 3.6185904
        -23.660349 -0.6782483 3.4306993 -24.61991 -0.7146576 3.2006416
        -25.638308 -0.7564858 2.9224808 -26.720987 -0.8047992 2.589299
        -27.874128 -0.8609308 2.1929383 -29.10478 -0.9265595 1.723663
        -30.42106 -1.0038149 1.1696969 -31.832355 -1.0954164 0.51656294
        -33.349556 -1.2048537 -0.25386617 -34.985176 -1.3366191 -1.1647708
        -36.7532 -1.4964986 -2.2463877 -38.66824 -1.691916 -3.538768
        -40.74336 -1.9323101 -5.095317 -42.985634 -2.2294917 -6.9868317
        -45.388138 -2.5978384 -9.305121 -47.916748 -3.0540955 -12.164217
        -50.490913 -3.6163604 -15.695559 -52.958733 -4.3015943 -20.031317
        -55.070354 -5.1208706 -25.268358 -56.46154 -6.0716114 -31.405722
        -56.66774 -7.127006 -38.256004 -55.19671 -8.225018 -45.35007
        -51.67756 -9.262941 -51.883785 -46.065147 -10.106324 -56.780205
        -38.81106 -10.618058 -58.91679 -30.872751 -10.698864 -57.476334
        -23.490524 -10.322433 -52.258793 -17.80627 -9.549095 -43.765778
        -14.524393 -8.50182 -32.996788 -13.785139 -7.322278 -21.082527
        -0.3199005 -0.48590326 1.0011463 -0.33576012 -0.45269156 0.8481903
        -0.31406593 -0.42432022 0.7207241 -0.2728386 -0.40051615 0.62448025
        -0.22535133 -0.38084865 0.55723286 -0.17955208 -0.3648095 0.5133319
        -9.9798355 -0.26624218 3.138388 -10.320059 -0.26590177 3.2154484
        -10.670481 -0.26555684 3.292475 -11.031501 -0.26520813 3.3691764
        -11.403576 -0.26485634 3.4452262 -11.78723 -0.26450256 3.5202563
        -12.183062 -0.2641481 3.593853 -12.591758 -0.26379442 3.6655474
        -13.014098 -0.2634435 3.7348082 -13.450967 -0.2630976 3.8010297
        -13.903363 -0.26275966 3.8635206 -14.372412 -0.26243296 3.9214914
        -14.859367 -0.26212165 3.974036 -15.365627 -0.2618307 4.0201187
        -15.892735 -0.26156634 4.0585523 -16.442387 -0.26133573 4.087981
        -17.016434 -0.26114786 4.1068616 -17.6169 -0.26101345 4.1134386
        -18.24596 -0.26094565 4.105725 -18.905985 -0.26096025 4.0814815
        -19.59952 -0.26107666 4.03819 -20.329317 -0.26131845 3.9730248
        -21.098368 -0.2617143 3.8828208 -21.90991 -0.26230085 3.7640254
        -22.767523 -0.26311842 3.612635 -23.675144 -0.2642209 3.4241142
        -24.637157 -0.26567307 3.1932788 -25.658487 -0.26755476 2.9141426
        -26.744698 -0.26996377 2.5797188 -27.90212 -0.27302116 2.181755
        -29.138012 -0.27687544 1.7103834 -30.46075 -0.2817109 1.1536388
        -31.880081 -0.28775305 0.49677998 -33.407356 -0.29527938 -0.27870733
        -35.0557 -0.30462852 -1.1965606 -36.839886 -0.3162116 -2.287836
        -38.775524 -0.3305213 -3.5937893 -40.876915 -0.34814015 -5.1695814
        -43.152557 -0.3697379 -7.0885487 -45.597 -0.3960613 -9.446114
        -48.177406 -0.4279023 -12.361303 -50.813644 -0.46603617 -15.972152
        -53.35239 -0.5111189 -20.41893 -55.539017 -0.5635196 -25.807209
        -56.999344 -0.6230228 -32.143055 -57.25264 -0.6883236 -39.240242
        -55.784996 -0.7562965 -46.618782 -52.203667 -0.8213831 -53.446518
        -46.45085 -0.875965 -58.60066 -38.985752 -0.9131638 -60.905094
        -30.79845 -0.9274614 -59.500145 -23.176632 -0.9136236 -54.17398
        -17.305628 -0.87360376 -45.453335 -13.913391 -0.81430125 -34.387913
        -13.139294 -0.7440918 -22.162489 -0.2731743 -0.56853545 0.93754005
        -0.29497528 -0.5150921 0.8020859 -0.27983665 -0.46926135 0.68812466
        -0.24492645 -0.4316393 0.60188293 -0.20303154 -0.4016798 0.5418129
        -0.16195774 -0.3783059 0.50295305 -9.978635 -0.14524539 3.140807
        -10.318789 -0.14064689 3.2179868 -10.669132 -0.13585861 3.2951386
        -11.03006 -0.13085985 3.3719714 -11.402028 -0.12562667 3.4481578
        -11.785559 -0.12013173 3.5233305 -12.181249 -0.11434373 3.597075
        -12.589782 -0.10822686 3.668923 -13.011933 -0.10174041 3.7383423
        -13.448586 -0.09483799 3.804728 -13.900734 -0.08746713 3.867389
        -14.369499 -0.07956807 3.9255347 -14.856133 -0.07107327 3.9782605
        -15.362022 -0.061905965 4.02453 -15.88871 -0.05197915 4.0631576
        -16.437881 -0.041193977 4.092789 -17.011383 -0.029437702 4.1118813
        -17.611227 -0.016581738 4.118681 -18.23958 -0.0024784058 4.111205
        -18.898798 0.013042739 4.0872173 -19.591415 0.03017922 4.0442047
        -20.320162 0.049162067 3.9793484 -21.088003 0.07026328 3.8894923
        -21.898159 0.09380406 3.7710953 -22.75417 0.12017506 3.620172
        -23.65993 0.14984265 3.432208 -24.61977 0.18337792 3.202049
        -25.63855 0.22148448 2.9237494 -26.72174 0.26503605 2.590377
        -27.875566 0.31512994 2.1937547 -29.107128 0.37315407 1.7241182
        -30.42462 0.44088176 1.1696486 -31.837519 0.52059436 0.5158115
        -33.356846 0.615247 -0.25561082 -34.995274 0.72868323 -1.1679261
        -36.767 0.86590564 -2.2515612 -38.686893 1.0334073 -3.5468447
        -40.768326 1.23954 -5.1075897 -43.018753 1.4948785 -7.0051804
        -45.43158 1.8124472 -9.3322525 -47.972992 2.207595 -12.203978
        -50.562515 2.6970987 -15.753286 -53.047844 3.2968895 -20.11419
        -55.17794 4.0175915 -25.38547 -56.586266 4.8573017 -31.567741
        -56.80462 5.7918606 -38.473923 -55.335926 6.765087 -45.6326
        -51.804405 7.6843224 -52.233776 -46.161587 8.428452 -57.190807
        -38.859947 8.872692 -59.369576 -30.864948 8.92822 -57.942886
        -23.427597 8.576868 -52.706932 -17.699272 7.875949 -44.167633
        -14.390385 6.936556 -33.33471 -13.64213 5.8856473 -21.35082
        -0.20978928 -0.6193423 0.84635353 -0.2385521 -0.55403733 0.73809814
        -0.23258018 -0.49733806 0.64498806 -0.20698357 -0.450835 0.5737238
        -0.17341805 -0.41415584 0.5239258 -0.13927746 -0.38597405 0.49188566
        -9.975636 -0.024847383 3.1464846 -10.315602 -0.016019419 3.2240014
        -10.665726 -0.0068184864 3.3015084 -11.026397 0.0027972562 3.3787136
        -11.398067 0.012876075 3.4552898 -11.781248 0.023473399 3.5308695
        -12.176536 0.034652792 3.6050384 -12.584599 0.046486814 3.6773272
        -13.006209 0.059058275 3.7472045 -13.442238 0.072461456 3.8140645
        -13.893667 0.0868036 3.8772168 -14.361607 0.10220648 3.9358711
        -14.847291 0.11880839 3.9891243 -15.352097 0.13676634 4.0359416
        -15.877542 0.15625887 4.0751395 -16.425297 0.17748918 4.1053677
        -16.997177 0.2006889 4.125087 -17.59517 0.2261234 4.1325517
        -18.221409 0.2540974 4.125788 -18.878206 0.2849627 4.102571
        -19.56805 0.3191281 4.0604033 -20.293613 0.3570718 3.99649
        -21.05779 0.3993569 3.9077017 -21.863712 0.44665042 3.7905378
        -22.714806 0.49975723 3.6410642 -23.614828 0.5596435 3.4548378
        -24.567938 0.6274879 3.226798 -25.578768 0.7047398 2.9511302
        -26.652506 0.7931944 2.621075 -27.795002 0.8950976 2.2286966
        -29.012877 1.013279 1.7645624 -30.313679 1.1513357 1.2173202
        -31.706066 1.3138714 0.5730953 -33.199936 1.5068094 -0.1853822
        -34.806538 1.7378026 -1.0800434 -36.53819 2.0167336 -2.1393135
        -38.40741 2.3563232 -3.4005935 -40.424698 2.7727776 -4.913434
        -42.59417 3.286394 -6.743078 -44.905804 3.9218707 -8.973471
        -47.32297 4.7078705 -11.707841 -49.76445 5.675104 -15.063454
        -52.08171 6.8518033 -19.155262 -54.035603 8.255221 -24.061838
        -55.28369 9.878184 -29.767963 -55.396835 11.671445 -36.08522
        -53.929295 13.526407 -42.569283 -50.556396 15.268071 -48.478188
        -45.257423 16.671206 -52.83381 -38.464638 17.507545 -54.627686
        -31.066322 17.615055 -53.130085 -24.201836 16.957308 -48.16224
        -18.920164 15.637182 -40.169445 -15.876926 13.8578 -30.0431
        -15.216547 11.853371 -18.798897 -0.14027214 -0.6315174 0.74435234
        -0.17514992 -0.56470394 0.66719246 -0.17891312 -0.5053878 0.5981569
        -0.1638298 -0.4561677 0.54414845 -0.13992119 -0.41717362 0.5060296
        -0.11386204 -0.38723683 0.48153067 -9.970542 0.09436485 3.1550465
        -10.310198 0.10736635 3.2331114 -10.659956 0.12091995 3.311196
        -11.020202 0.13508812 3.389009 -11.391376 0.14994292 3.4662228
        -11.77398 0.16556713 3.542469 -12.168597 0.1820557 3.6173337
        -12.575886 0.19951709 3.6903472 -12.996598 0.21807507 3.7609773
        -13.431593 0.2378706 3.8286192 -13.881832 0.259064 3.8925824
        -14.348405 0.28183734 3.952079 -14.832522 0.3063973 4.006206
        -15.335533 0.3329788 4.053932 -15.858925 0.3618485 4.0940785
        -16.404333 0.3933101 4.1253 -16.973536 0.42770952 4.146066
        -17.568466 0.46544272 4.1546426 -18.19121 0.506964 4.149069
        -18.844011 0.5527979 4.1271424 -19.529276 0.6035525 4.086392
        -20.249584 0.6599381 4.0240574 -21.007711 0.72279036 3.937059
        -21.806643 0.793097 3.821958 -22.649628 0.8720458 3.674909
        -23.540197 0.96106005 3.491582 -24.482225 1.061871 3.2670736
        -25.479982 1.176599 2.9957767 -26.538193 1.3078616 2.6712189
        -27.662106 1.4589162 2.2858517 -28.85757 1.6338487 1.8307791