# vtk DataFile Version 3.0
SM polar seed points transformed to GSW coordinates
ASCII
DATASET POLYDATA
POINTS      288 float
       0.993740       0.000000       1.123601
       0.968697       0.194114       1.128692
       0.895273       0.375000       1.143618
       0.778473       0.530330       1.167360
       0.626256       0.649519       1.198302
       0.448996       0.724444       1.234335
       0.258772       0.750000       1.273003
       0.068548       0.724444       1.311671
      -0.108713       0.649519       1.347704
      -0.260930       0.530330       1.378646
      -0.377730       0.375000       1.402389
      -0.451154       0.194114       1.417314
      -0.476197      -0.000000       1.422405
      -0.451154      -0.194114       1.417314
      -0.377730      -0.375000       1.402389
      -0.260930      -0.530330       1.378646
      -0.108713      -0.649519       1.347704
       0.068548      -0.724444       1.311671
       0.258772      -0.750000       1.273003
       0.448996      -0.724444       1.234335
       0.626256      -0.649519       1.198302
       0.778473      -0.530330       1.167360
       0.895273      -0.375000       1.143618
       0.968697      -0.194114       1.128692
       0.892031       0.000000       1.205936
       0.870863       0.164072       1.210239
       0.808803       0.316964       1.222854
       0.710079       0.448254       1.242922
       0.581419       0.548997       1.269076
       0.431592       0.612327       1.299532
       0.270808       0.633927       1.332216
       0.110024       0.612327       1.364900
      -0.039803       0.548997       1.395356
      -0.168462       0.448254       1.421509
      -0.267186       0.316964       1.441577
      -0.329247       0.164073       1.454193
      -0.350414      -0.000000       1.458496
      -0.329247      -0.164073       1.454193
      -0.267186      -0.316964       1.441577
      -0.168462      -0.448254       1.421509
      -0.039803      -0.548997       1.395356
       0.110024      -0.612327       1.364900
       0.270808      -0.633927       1.332216
       0.431592      -0.612327       1.299532
       0.581419      -0.548997       1.269076
       0.710079      -0.448254       1.242922
       0.808802      -0.316964       1.222854
       0.870863      -0.164073       1.210239
       0.783532       0.000000       1.279093
       0.766401       0.132782       1.282575
       0.716176       0.256515       1.292784
       0.636280       0.362767       1.309025
       0.532158       0.444297       1.330191
       0.410905       0.495549       1.354839
       0.280784       0.513030       1.381289
       0.150663       0.495549       1.407740
       0.029410       0.444297       1.432388
      -0.074713       0.362767       1.453554
      -0.154609       0.256515       1.469795
      -0.204834       0.132782       1.480004
      -0.221965      -0.000000       1.483486
      -0.204834      -0.132782       1.480004
      -0.154609      -0.256515       1.469795
      -0.074713      -0.362767       1.453554
       0.029410      -0.444297       1.432388
       0.150663      -0.495549       1.407740
       0.280784      -0.513030       1.381289
       0.410904      -0.495549       1.354839
       0.532158      -0.444297       1.330191
       0.636280      -0.362767       1.309025
       0.716176      -0.256515       1.292784
       0.766401      -0.132782       1.282575
       0.669070       0.000000       1.342515
       0.656107       0.100481       1.345150
       0.618100       0.194114       1.352876
       0.557639       0.274519       1.365166
       0.478846       0.336216       1.381183
       0.387089       0.375000       1.399835
       0.288622       0.388229       1.419851
       0.190155       0.375000       1.439867
       0.098398       0.336216       1.458519
       0.019605       0.274519       1.474536
      -0.040855       0.194114       1.486826
      -0.078862       0.100481       1.494552
      -0.091826      -0.000000       1.497187
      -0.078862      -0.100481       1.494552
      -0.040855      -0.194114       1.486826
       0.019605      -0.274519       1.474536
       0.098398      -0.336216       1.458519
       0.190155      -0.375000       1.439867
       0.288622      -0.388229       1.419851
       0.387089      -0.375000       1.399835
       0.478846      -0.336216       1.381183
       0.557639      -0.274519       1.365166
       0.618100      -0.194114       1.352876
       0.656107      -0.100481       1.345150
       0.549516       0.000000       1.395719
       0.540819       0.067415       1.397487
       0.515319       0.130236       1.402671
       0.474755       0.184182       1.410916
       0.421890       0.225576       1.421662
       0.360328       0.251597       1.434177
       0.294264       0.260472       1.447606
       0.228200       0.251597       1.461035
       0.166638       0.225576       1.473549
       0.113774       0.184182       1.484295
       0.073210       0.130236       1.492541
       0.047710       0.067415       1.497725
       0.039012      -0.000000       1.499493
       0.047710      -0.067415       1.497725
       0.073209      -0.130236       1.492541
       0.113774      -0.184182       1.484295
       0.166638      -0.225576       1.473549
       0.228200      -0.251597       1.461035
       0.294264      -0.260472       1.447606
       0.360328      -0.251597       1.434177
       0.421890      -0.225576       1.421662
       0.474755      -0.184182       1.410916
       0.515319      -0.130236       1.402671
       0.540819      -0.067415       1.397487
       0.425780       0.000000       1.438301
       0.421415       0.033836       1.439189
       0.408616       0.065367       1.441790
       0.388257       0.092443       1.445929
       0.361723       0.113219       1.451323
       0.330825       0.126279       1.457604
       0.297667       0.130734       1.464344
       0.264508       0.126279       1.471084
       0.233610       0.113219       1.477365
       0.207077       0.092443       1.482759
       0.186717       0.065367       1.486897
       0.173918       0.033836       1.489499
       0.169553      -0.000000       1.490386
       0.173918      -0.033836       1.489499
       0.186717      -0.065367       1.486897
       0.207077      -0.092443       1.482759
       0.233610      -0.113219       1.477365
       0.264508      -0.126279       1.471084
       0.297667      -0.130734       1.464344
       0.330825      -0.126279       1.457604
       0.361723      -0.113219       1.451323
       0.388257      -0.092443       1.445929
       0.408616      -0.065367       1.441790
       0.421415      -0.033836       1.439189
       0.476197       0.000000      -1.422405
       0.451154       0.194114      -1.417314
       0.377730       0.375000      -1.402389
       0.260930       0.530330      -1.378646
       0.108713       0.649519      -1.347704
      -0.068548       0.724444      -1.311671
      -0.258772       0.750000      -1.273003
      -0.448996       0.724444      -1.234335
      -0.626256       0.649519      -1.198302
      -0.778473       0.530330      -1.167360
      -0.895273       0.375000      -1.143618
      -0.968697       0.194114      -1.128692
      -0.993740      -0.000000      -1.123601
      -0.968697      -0.194114      -1.128692
      -0.895273      -0.375000      -1.143618
      -0.778473      -0.530330      -1.167360
      -0.626256      -0.649519      -1.198302
      -0.448996      -0.724444      -1.234335
      -0.258772      -0.750000      -1.273003
      -0.068548      -0.724444      -1.311671
       0.108713      -0.649519      -1.347704
       0.260930      -0.530330      -1.378646
       0.377730      -0.375000      -1.402389
       0.451154      -0.194114      -1.417314
       0.350414       0.000000      -1.458496
       0.329247       0.164072      -1.454193
       0.267186       0.316964      -1.441577
       0.168462       0.448254      -1.421509
       0.039803       0.548997      -1.395356
      -0.110024       0.612327      -1.364900
      -0.270808       0.633927      -1.332216
      -0.431592       0.612327      -1.299532
      -0.581419       0.548997      -1.269076
      -0.710079       0.448254      -1.242922
      -0.808803       0.316964      -1.222854
      -0.870863       0.164073      -1.210239
      -0.892031      -0.000000      -1.205936
      -0.870863      -0.164073      -1.210239
      -0.808803      -0.316964      -1.222854
      -0.710079      -0.448254      -1.242922
      -0.581419      -0.548997      -1.269076
      -0.431592      -0.612327      -1.299532
      -0.270808      -0.633927      -1.332216
      -0.110024      -0.612327      -1.364900
       0.039803      -0.548997      -1.395356
       0.168462      -0.448254      -1.421509
       0.267186      -0.316964      -1.441577
       0.329247      -0.164073      -1.454193
       0.221965       0.000000      -1.483486
       0.204834       0.132782      -1.480004
       0.154609       0.256515      -1.469795
       0.074713       0.362767      -1.453554
      -0.029410       0.444297      -1.432388
      -0.150663       0.495549      -1.407740
      -0.280784       0.513030      -1.381289
      -0.410904       0.495549      -1.354839
      -0.532158       0.444297      -1.330191
      -0.636280       0.362767      -1.309025
      -0.716176       0.256515      -1.292784
      -0.766401       0.132782      -1.282575
      -0.783532      -0.000000      -1.279093
      -0.766401      -0.132782      -1.282575
      -0.716176      -0.256515      -1.292784
      -0.636280      -0.362767      -1.309025
      -0.532158      -0.444297      -1.330191
      -0.410904      -0.495549      -1.354839
      -0.280784      -0.513030      -1.381289
      -0.150663      -0.495549      -1.407740
      -0.029410      -0.444297      -1.432388
       0.074713      -0.362767      -1.453554
       0.154609      -0.256515      -1.469795
       0.204834      -0.132782      -1.480004
       0.091826       0.000000      -1.497187
       0.078862       0.100481      -1.494552
       0.040855       0.194114      -1.486826
      -0.019605       0.274519      -1.474536
      -0.098398       0.336216      -1.458519
      -0.190155       0.375000      -1.439867
      -0.288622       0.388229      -1.419851
      -0.387089       0.375000      -1.399835
      -0.478846       0.336216      -1.381183
      -0.557640       0.274519      -1.365166
      -0.618100       0.194114      -1.352876
      -0.656107       0.100481      -1.345150
      -0.669070      -0.000000      -1.342515
      -0.656107      -0.100481      -1.345150
      -0.618100      -0.194114      -1.352876
      -0.557640      -0.274519      -1.365166
      -0.478846      -0.336216      -1.381183
      -0.387089      -0.375000      -1.399835
      -0.288622      -0.388229      -1.419851
      -0.190155      -0.375000      -1.439867
      -0.098398      -0.336216      -1.458519
      -0.019605      -0.274519      -1.474536
       0.040855      -0.194114      -1.486826
       0.078862      -0.100481      -1.494552
      -0.039012       0.000000      -1.499493
      -0.047710       0.067415      -1.497725
      -0.073209       0.130236      -1.492541
      -0.113774       0.184182      -1.484295
      -0.166638       0.225576      -1.473549
      -0.228200       0.251597      -1.461035
      -0.294264       0.260472      -1.447606
      -0.360328       0.251597      -1.434177
      -0.421890       0.225576      -1.421662
      -0.474755       0.184182      -1.410916
      -0.515319       0.130236      -1.402671
      -0.540819       0.067415      -1.397487
      -0.549516      -0.000000      -1.395719
      -0.540819      -0.067415      -1.397487
      -0.515319      -0.130236      -1.402671
      -0.474755      -0.184182      -1.410916
      -0.421890      -0.225576      -1.421662
      -0.360328      -0.251597      -1.434177
      -0.294264      -0.260472      -1.447606
      -0.228200      -0.251597      -1.461035
      -0.166638      -0.225576      -1.473549
      -0.113774      -0.184182      -1.484295
      -0.073210      -0.130236      -1.492541
      -0.047710      -0.067415      -1.497725
      -0.169553       0.000000      -1.490386
      -0.173918       0.033836      -1.489499
      -0.186717       0.065367      -1.486897
      -0.207077       0.092443      -1.482759
      -0.233610       0.113219      -1.477365
      -0.264508       0.126279      -1.471084
      -0.297667       0.130734      -1.464344
      -0.330825       0.126279      -1.457604
      -0.361723       0.113219      -1.451323
      -0.388257       0.092443      -1.445929
      -0.408616       0.065367      -1.441790
      -0.421415       0.033836      -1.439189
      -0.425780      -0.000000      -1.438301
      -0.421415      -0.033836      -1.439189
      -0.408616      -0.065367      -1.441790
      -0.388257      -0.092443      -1.445929
      -0.361723      -0.113219      -1.451323
      -0.330825      -0.126279      -1.457604
      -0.297667      -0.130734      -1.464344
      -0.264508      -0.126279      -1.471084
      -0.233610      -0.113219      -1.477365
      -0.207077      -0.092443      -1.482759
      -0.186717      -0.065367      -1.486897
      -0.173919      -0.033836      -1.489499
VERTICES      288     576
 1        0
 1        1
 1        2
 1        3
 1        4
 1        5
 1        6
 1        7
 1        8
 1        9
 1       10
 1       11
 1       12
 1       13
 1       14
 1       15
 1       16
 1       17
 1       18
 1       19
 1       20
 1       21
 1       22
 1       23
 1       24
 1       25
 1       26
 1       27
 1       28
 1       29
 1       30
 1       31
 1       32
 1       33
 1       34
 1       35
 1       36
 1       37
 1       38
 1       39
 1       40
 1       41
 1       42
 1       43
 1       44
 1       45
 1       46
 1       47
 1       48
 1       49
 1       50
 1       51
 1       52
 1       53
 1       54
 1       55
 1       56
 1       57
 1       58
 1       59
 1       60
 1       61
 1       62
 1       63
 1       64
 1       65
 1       66
 1       67
 1       68
 1       69
 1       70
 1       71
 1       72
 1       73
 1       74
 1       75
 1       76
 1       77
 1       78
 1       79
 1       80
 1       81
 1       82
 1       83
 1       84
 1       85
 1       86
 1       87
 1       88
 1       89
 1       90
 1       91
 1       92
 1       93
 1       94
 1       95
 1       96
 1       97
 1       98
 1       99
 1      100
 1      101
 1      102
 1      103
 1      104
 1      105
 1      106
 1      107
 1      108
 1      109
 1      110
 1      111
 1      112
 1      113
 1      114
 1      115
 1      116
 1      117
 1      118
 1      119
 1      120
 1      121
 1      122
 1      123
 1      124
 1      125
 1      126
 1      127
 1      128
 1      129
 1      130
 1      131
 1      132
 1      133
 1      134
 1      135
 1      136
 1      137
 1      138
 1      139
 1      140
 1      141
 1      142
 1      143
 1      144
 1      145
 1      146
 1      147
 1      148
 1      149
 1      150
 1      151
 1      152
 1      153
 1      154
 1      155
 1      156
 1      157
 1      158
 1      159
 1      160
 1      161
 1      162
 1      163
 1      164
 1      165
 1      166
 1      167
 1      168
 1      169
 1      170
 1      171
 1      172
 1      173
 1      174
 1      175
 1      176
 1      177
 1      178
 1      179
 1      180
 1      181
 1      182
 1      183
 1      184
 1      185
 1      186
 1      187
 1      188
 1      189
 1      190
 1      191
 1      192
 1      193
 1      194
 1      195
 1      196
 1      197
 1      198
 1      199
 1      200
 1      201
 1      202
 1      203
 1      204
 1      205
 1      206
 1      207
 1      208
 1      209
 1      210
 1      211
 1      212
 1      213
 1      214
 1      215
 1      216
 1      217
 1      218
 1      219
 1      220
 1      221
 1      222
 1      223
 1      224
 1      225
 1      226
 1      227
 1      228
 1      229
 1      230
 1      231
 1      232
 1      233
 1      234
 1      235
 1      236
 1      237
 1      238
 1      239
 1      240
 1      241
 1      242
 1      243
 1      244
 1      245
 1      246
 1      247
 1      248
 1      249
 1      250
 1      251
 1      252
 1      253
 1      254
 1      255
 1      256
 1      257
 1      258
 1      259
 1      260
 1      261
 1      262
 1      263
 1      264
 1      265
 1      266
 1      267
 1      268
 1      269
 1      270
 1      271
 1      272
 1      273
 1      274
 1      275
 1      276
 1      277
 1      278
 1      279
 1      280
 1      281
 1      282
 1      283
 1      284
 1      285
 1      286
 1      287
POINT_DATA      288
SCALARS hemisphere int 1
LOOKUP_TABLE default
 1
 1
 1
 1
 1
 1
 1
 1
 1
 1
 1
 1
 1
 1
 1
 1
 1
 1
 1
 1
 1
 1
 1
 1
 1
 1
 1
 1
 1
 1
 1
 1
 1
 1
 1
 1
 1
 1
 1
 1
 1
 1
 1
 1
 1
 1
 1
 1
 1
 1
 1
 1
 1
 1
 1
 1
 1
 1
 1
 1
 1
 1
 1
 1
 1
 1
 1
 1
 1
 1
 1
 1
 1
 1
 1
 1
 1
 1
 1
 1
 1
 1
 1
 1
 1
 1
 1
 1
 1
 1
 1
 1
 1
 1
 1
 1
 1
 1
 1
 1
 1
 1
 1
 1
 1
 1
 1
 1
 1
 1
 1
 1
 1
 1
 1
 1
 1
 1
 1
 1
 1
 1
 1
 1
 1
 1
 1
 1
 1
 1
 1
 1
 1
 1
 1
 1
 1
 1
 1
 1
 1
 1
 1
 1
-1
-1
-1
-1
-1
-1
-1
-1
-1
-1
-1
-1
-1
-1
-1
-1
-1
-1
-1
-1
-1
-1
-1
-1
-1
-1
-1
-1
-1
-1
-1
-1
-1
-1
-1
-1
-1
-1
-1
-1
-1
-1
-1
-1
-1
-1
-1
-1
-1
-1
-1
-1
-1
-1
-1
-1
-1
-1
-1
-1
-1
-1
-1
-1
-1
-1
-1
-1
-1
-1
-1
-1
-1
-1
-1
-1
-1
-1
-1
-1
-1
-1
-1
-1
-1
-1
-1
-1
-1
-1
-1
-1
-1
-1
-1
-1
-1
-1
-1
-1
-1
-1
-1
-1
-1
-1
-1
-1
-1
-1
-1
-1
-1
-1
-1
-1
-1
-1
-1
-1
-1
-1
-1
-1
-1
-1
-1
-1
-1
-1
-1
-1
-1
-1
-1
-1
-1
-1
-1
-1
-1
-1
-1
-1
