# vtk DataFile Version 3.0
T01 + IGRF magnetic field in GSW coordinates
ASCII
DATASET STRUCTURED_GRID
DIMENSIONS     61    21    21
POINTS    26901 float
     -50.000000     -10.000000     -10.000000
     -49.000000     -10.000000     -10.000000
     -48.000000     -10.000000     -10.000000
     -47.000000     -10.000000     -10.000000
     -46.000000     -10.000000     -10.000000
     -45.000000     -10.000000     -10.000000
     -44.000000     -10.000000     -10.000000
     -43.000000     -10.000000     -10.000000
     -42.000000     -10.000000     -10.000000
     -41.000000     -10.000000     -10.000000
     -40.000000     -10.000000     -10.000000
     -39.000000     -10.000000     -10.000000
     -38.000000     -10.000000     -10.000000
     -37.000000     -10.000000     -10.000000
     -36.000000     -10.000000     -10.000000
     -35.000000     -10.000000     -10.000000
     -34.000000     -10.000000     -10.000000
     -33.000000     -10.000000     -10.000000
     -32.000000     -10.000000     -10.000000
     -31.000000     -10.000000     -10.000000
     -30.000000     -10.000000     -10.000000
     -29.000000     -10.000000     -10.000000
     -28.000000     -10.000000     -10.000000
     -27.000000     -10.000000     -10.000000
     -26.000000     -10.000000     -10.000000
     -25.000000     -10.000000     -10.000000
     -24.000000     -10.000000     -10.000000
     -23.000000     -10.000000     -10.000000
     -22.000000     -10.000000     -10.000000
     -21.000000     -10.000000     -10.000000
     -20.000000     -10.000000     -10.000000
     -19.000000     -10.000000     -10.000000
     -18.000000     -10.000000     -10.000000
     -17.000000     -10.000000     -10.000000
     -16.000000     -10.000000     -10.000000
     -15.000000     -10.000000     -10.000000
     -14.000000     -10.000000     -10.000000
     -13.000000     -10.000000     -10.000000
     -12.000000     -10.000000     -10.000000
     -11.000000     -10.000000     -10.000000
     -10.000000     -10.000000     -10.000000
      -9.000000     -10.000000     -10.000000
      -8.000000     -10.000000     -10.000000
      -7.000000     -10.000000     -10.000000
      -6.000000     -10.000000     -10.000000
      -5.000000     -10.000000     -10.000000
      -4.000000     -10.000000     -10.000000
      -3.000000     -10.000000     -10.000000
      -2.000000     -10.000000     -10.000000
      -1.000000     -10.000000     -10.000000
       0.000000     -10.000000     -10.000000
       1.000000     -10.000000     -10.000000
       2.000000     -10.000000     -10.000000
       3.000000     -10.000000     -10.000000
       4.000000     -10.000000     -10.000000
       5.000000     -10.000000     -10.000000
       6.000000     -10.000000     -10.000000
       7.000000     -10.000000     -10.000000
       8.000000     -10.000000     -10.000000
       9.000000     -10.000000     -10.000000
      10.000000     -10.000000     -10.000000
     -50.000000      -9.000000     -10.000000
     -49.000000      -9.000000     -10.000000
     -48.000000      -9.000000     -10.000000
     -47.000000      -9.000000     -10.000000
     -46.000000      -9.000000     -10.000000
     -45.000000      -9.000000     -10.000000
     -44.000000      -9.000000     -10.000000
     -43.000000      -9.000000     -10.000000
     -42.000000      -9.000000     -10.000000
     -41.000000      -9.000000     -10.000000
     -40.000000      -9.000000     -10.000000
     -39.000000      -9.000000     -10.000000
     -38.000000      -9.000000     -10.000000
     -37.000000      -9.000000     -10.000000
     -36.000000      -9.000000     -10.000000
     -35.000000      -9.000000     -10.000000
     -34.000000      -9.000000     -10.000000
     -33.000000      -9.000000     -10.000000
     -32.000000      -9.000000     -10.000000
     -31.000000      -9.000000     -10.000000
     -30.000000      -9.000000     -10.000000
     -29.000000      -9.000000     -10.000000
     -28.000000      -9.000000     -10.000000
     -27.000000      -9.000000     -10.000000
     -26.000000      -9.000000     -10.000000
     -25.000000      -9.000000     -10.000000
     -24.000000      -9.000000     -10.000000
     -23.000000      -9.000000     -10.000000
     -22.000000      -9.000000     -10.000000
     -21.000000      -9.000000     -10.000000
     -20.000000      -9.000000     -10.000000
     -19.000000      -9.000000     -10.000000
     -18.000000      -9.000000     -10.000000
     -17.000000      -9.000000     -10.000000
     -16.000000      -9.000000     -10.000000
     -15.000000      -9.000000     -10.000000
     -14.000000      -9.000000     -10.000000
     -13.000000      -9.000000     -10.000000
     -12.000000      -9.000000     -10.000000
     -11.000000      -9.000000     -10.000000
     -10.000000      -9.000000     -10.000000
      -9.000000      -9.000000     -10.000000
      -8.000000      -9.000000     -10.000000
      -7.000000      -9.000000     -10.000000
      -6.000000      -9.000000     -10.000000
      -5.000000      -9.000000     -10.000000
      -4.000000      -9.000000     -10.000000
      -3.000000      -9.000000     -10.000000
      -2.000000      -9.000000     -10.000000
      -1.000000      -9.000000     -10.000000
       0.000000      -9.000000     -10.000000
       1.000000      -9.000000     -10.000000
       2.000000      -9.000000     -10.000000
       3.000000      -9.000000     -10.000000
       4.000000      -9.000000     -10.000000
       5.000000      -9.000000     -10.000000
       6.000000      -9.000000     -10.000000
       7.000000      -9.000000     -10.000000
       8.000000      -9.000000     -10.000000
       9.000000      -9.000000     -10.000000
      10.000000      -9.000000     -10.000000
     -50.000000      -8.000000     -10.000000
     -49.000000      -8.000000     -10.000000
     -48.000000      -8.000000     -10.000000
     -47.000000      -8.000000     -10.000000
     -46.000000      -8.000000     -10.000000
     -45.000000      -8.000000     -10.000000
     -44.000000      -8.000000     -10.000000
     -43.000000      -8.000000     -10.000000
     -42.000000      -8.000000     -10.000000
     -41.000000      -8.000000     -10.000000
     -40.000000      -8.000000     -10.000000
     -39.000000      -8.000000     -10.000000
     -38.000000      -8.000000     -10.000000
     -37.000000      -8.000000     -10.000000
     -36.000000      -8.000000     -10.000000
     -35.000000      -8.000000     -10.000000
     -34.000000      -8.000000     -10.000000
     -33.000000      -8.000000     -10.000000
     -32.000000      -8.000000     -10.000000
     -31.000000      -8.000000     -10.000000
     -30.000000      -8.000000     -10.000000
     -29.000000      -8.000000     -10.000000
     -28.000000      -8.000000     -10.000000
     -27.000000      -8.000000     -10.000000
     -26.000000      -8.000000     -10.000000
     -25.000000      -8.000000     -10.000000
     -24.000000      -8.000000     -10.000000
     -23.000000      -8.000000     -10.000000
     -22.000000      -8.000000     -10.000000
     -21.000000      -8.000000     -10.000000
     -20.000000      -8.000000     -10.000000
     -19.000000      -8.000000     -10.000000
     -18.000000      -8.000000     -10.000000
     -17.000000      -8.000000     -10.000000
     -16.000000      -8.000000     -10.000000
     -15.000000      -8.000000     -10.000000
     -14.000000      -8.000000     -10.000000
     -13.000000      -8.000000     -10.000000
     -12.000000      -8.000000     -10.000000
     -11.000000      -8.000000     -10.000000
     -10.000000      -8.000000     -10.000000
      -9.000000      -8.000000     -10.000000
      -8.000000      -8.000000     -10.000000
      -7.000000      -8.000000     -10.000000
      -6.000000      -8.000000     -10.000000
      -5.000000      -8.000000     -10.000000
      -4.000000      -8.000000     -10.000000
      -3.000000      -8.000000     -10.000000
      -2.000000      -8.000000     -10.000000
      -1.000000      -8.000000     -10.000000
       0.000000      -8.000000     -10.000000
       1.000000      -8.000000     -10.000000
       2.000000      -8.000000     -10.000000
       3.000000      -8.000000     -10.000000
       4.000000      -8.000000     -10.000000
       5.000000      -8.000000     -10.000000
       6.000000      -8.000000     -10.000000
       7.000000      -8.000000     -10.000000
       8.000000      -8.000000     -10.000000
       9.000000      -8.000000     -10.000000
      10.000000      -8.000000     -10.000000
     -50.000000      -7.000000     -10.000000
     -49.000000      -7.000000     -10.000000
     -48.000000      -7.000000     -10.000000
     -47.000000      -7.000000     -10.000000
     -46.000000      -7.000000     -10.000000
     -45.000000      -7.000000     -10.000000
     -44.000000      -7.000000     -10.000000
     -43.000000      -7.000000     -10.000000
     -42.000000      -7.000000     -10.000000
     -41.000000      -7.000000     -10.000000
     -40.000000      -7.000000     -10.000000
     -39.000000      -7.000000     -10.000000
     -38.000000      -7.000000     -10.000000
     -37.000000      -7.000000     -10.000000
     -36.000000      -7.000000     -10.000000
     -35.000000      -7.000000     -10.000000
     -34.000000      -7.000000     -10.000000
     -33.000000      -7.000000     -10.000000
     -32.000000      -7.000000     -10.000000
     -31.000000      -7.000000     -10.000000
     -30.000000      -7.000000     -10.000000
     -29.000000      -7.000000     -10.000000
     -28.000000      -7.000000     -10.000000
     -27.000000      -7.000000     -10.000000
     -26.000000      -7.000000     -10.000000
     -25.000000      -7.000000     -10.000000
[...]
POINT_DATA    26901
VECTORS B_total float
  -1.0260766E+01  -1.5037235E+00   3.1790712E+00
  -1.0603735E+01  -1.5449193E+00   3.2670062E+00
  -1.0955700E+01  -1.5876244E+00   3.3556676E+00
  -1.1316865E+01  -1.6320058E+00   3.4447439E+00
  -1.1687469E+01  -1.6782568E+00   3.5338819E+00
  -1.2067799E+01  -1.7266004E+00   3.6226811E+00
  -1.2458189E+01  -1.7772927E+00   3.7106884E+00
  -1.2859036E+01  -1.8306266E+00   3.7973905E+00
  -1.3270803E+01  -1.8869352E+00   3.8822076E+00
  -1.3694024E+01  -1.9465961E+00   3.9644837E+00
  -1.4129312E+01  -2.0100365E+00   4.0434775E+00
  -1.4577364E+01  -2.0777373E+00   4.1183519E+00
  -1.5038964E+01  -2.1502390E+00   4.1881618E+00
  -1.5514986E+01  -2.2281482E+00   4.2518439E+00
  -1.6006386E+01  -2.3121428E+00   4.3082032E+00
  -1.6514208E+01  -2.4029818E+00   4.3559031E+00
  -1.7039562E+01  -2.5015118E+00   4.3934541E+00
  -1.7583626E+01  -2.6086807E+00   4.4192052E+00
  -1.8147615E+01  -2.7255473E+00   4.4313431E+00
  -1.8732777E+01  -2.8532979E+00   4.4278846E+00
  -1.9340349E+01  -2.9932671E+00   4.4066849E+00
  -1.9971540E+01  -3.1469564E+00   4.3654423E+00
  -2.0627495E+01  -3.3160667E+00   4.3017125E+00
  -2.1309258E+01  -3.5025296E+00   4.2129235E+00
  -2.2017714E+01  -3.7085490E+00   4.0963950E+00
  -2.2753555E+01  -3.9366522E+00   3.9493582E+00
  -2.3517193E+01  -4.1897397E+00   3.7689898E+00
  -2.4308670E+01  -4.4711580E+00   3.5524247E+00
  -2.5127533E+01  -4.7847691E+00   3.2968097E+00
  -2.5972664E+01  -5.1350279E+00   2.9993656E+00
  -2.6842081E+01  -5.5270767E+00   2.6574910E+00
  -2.7732677E+01  -5.9668264E+00   2.2689304E+00
  -2.8639933E+01  -6.4610434E+00   1.8320034E+00
  -2.9557604E+01  -7.0174093E+00   1.3459305E+00
  -3.0477434E+01  -7.6445346E+00   8.1122935E-01
  -3.1388836E+01  -8.3518620E+00   2.3017809E-01
  -3.2278660E+01  -9.1494122E+00  -3.9270636E-01
  -3.3130951E+01  -1.0047199E+01  -1.0501748E+00
  -3.3926758E+01  -1.1054249E+01  -1.7317770E+00
  -3.4643974E+01  -1.2176970E+01  -2.4233551E+00
  -3.5257271E+01  -1.3416780E+01  -3.1063685E+00
  -3.5738464E+01  -1.4766894E+01  -3.7568703E+00
  -3.6057655E+01  -1.6208452E+01  -4.3439040E+00
  -3.6185982E+01  -1.7706497E+01  -4.8273544E+00
  -3.6100681E+01  -1.9206732E+01  -5.1556568E+00
  -3.5792831E+01  -2.0634453E+01  -5.2643819E+00
  -3.5277115E+01  -2.1897097E+01  -5.0770302E+00
  -3.4601551E+01  -2.2891552E+01  -4.5092864E+00
  -3.3853752E+01  -2.3515911E+01  -3.4767423E+00
   5.7269335E-03  -4.6977234E-01   2.3616219E-01
   4.1612864E-02  -4.6300507E-01   2.3705721E-01
   7.4515581E-02  -4.4906330E-01   2.4773216E-01
   1.0132790E-01  -4.2948914E-01   2.6683760E-01
   1.2005854E-01  -4.0649891E-01   2.9204559E-01
   1.3009024E-01  -3.8249207E-01   3.2060289E-01
   1.3206720E-01  -3.5958004E-01   3.4986794E-01
   1.2749863E-01  -3.3928299E-01   3.7772244E-01
   1.1828613E-01  -3.2244062E-01   4.0275162E-01
   1.0630417E-01  -3.0927753E-01   4.2423597E-01
   9.3143940E-02  -2.9958296E-01   4.4201007E-01
   7.9984188E-02  -2.9288244E-01   4.5628315E-01
  -1.0304482E+01  -1.4007119E+00   3.1707387E+00
  -1.0648927E+01  -1.4384729E+00   3.2568181E+00
  -1.1002528E+01  -1.4776151E+00   3.3434570E+00
  -1.1365518E+01  -1.5182916E+00   3.4303396E+00
  -1.1738162E+01  -1.5606802E+00   3.5171077E+00
  -1.2120779E+01  -1.6049861E+00   3.6033564E+00
  -1.2513741E+01  -1.6514448E+00   3.6886270E+00
  -1.2917485E+01  -1.7003263E+00   3.7724013E+00
  -1.3332512E+01  -1.7519377E+00   3.8540936E+00
  -1.3759403E+01  -1.8066287E+00   3.9330411E+00
  -1.4198826E+01  -1.8647945E+00   4.0084944E+00
  -1.4651529E+01  -1.9268814E+00   4.0796075E+00
  -1.5118360E+01  -1.9933926E+00   4.1454234E+00
  -1.5600251E+01  -2.0648935E+00   4.2048645E+00
  -1.6098236E+01  -2.1420197E+00   4.2567186E+00
  -1.6613434E+01  -2.2254846E+00   4.2996268E+00
  -1.7147043E+01  -2.3160889E+00   4.3320732E+00
  -1.7700331E+01  -2.4147325E+00   4.3523755E+00
  -1.8274632E+01  -2.5224290E+00   4.3586760E+00
  -1.8871309E+01  -2.6403220E+00   4.3489408E+00
  -1.9491743E+01  -2.7697070E+00   4.3209586E+00
  -2.0137316E+01  -2.9120579E+00   4.2723436E+00
  -2.0809364E+01  -3.0690582E+00   4.2005420E+00
  -2.1509161E+01  -3.2426426E+00   4.1028414E+00
  -2.2237875E+01  -3.4350441E+00   3.9763808E+00
  -2.2996523E+01  -3.6488521E+00   3.8181553E+00
  -2.3785900E+01  -3.8870835E+00   3.6250424E+00
  -2.4606512E+01  -4.1532669E+00   3.3937919E+00
  -2.5458435E+01  -4.4515381E+00   3.1210625E+00
  -2.6341192E+01  -4.7867565E+00   2.8034582E+00
  -2.7253529E+01  -5.1646318E+00   2.4376044E+00
  -2.8193193E+01  -5.5918770E+00   2.0202653E+00
  -2.9156635E+01  -6.0763578E+00   1.5485210E+00
  -3.0138693E+01  -6.6272440E+00   1.0200067E+00
  -3.1132231E+01  -7.2551203E+00   4.3320462E-01
  -3.2127735E+01  -7.9720092E+00  -2.1222773E-01
  -3.3112816E+01  -8.7911892E+00  -9.1511488E-01
  -3.4071609E+01  -9.7267132E+00  -1.6723800E+00
  -3.4983982E+01  -1.0792367E+01  -2.4785869E+00
  -3.5824558E+01  -1.1999886E+01  -3.3252378E+00
  -3.6561710E+01  -1.3356151E+01  -4.1995587E+00
  -3.7156826E+01  -1.4859185E+01  -5.0824080E+00
  -3.7564823E+01  -1.6493073E+01  -5.9450397E+00
  -3.7736893E+01  -1.8222193E+01  -6.7447357E+00
  -3.7626995E+01  -1.9986052E+01  -7.4200888E+00
  -3.7202820E+01  -2.1696486E+01  -7.8875799E+00
  -3.6460632E+01  -2.3239672E+01  -8.0419073E+00
  -3.5440994E+01  -2.4484900E+01  -7.7623930E+00
  -3.4240036E+01  -2.5300678E+01  -6.9262457E+00
  -3.3010254E+01  -2.5575531E+01  -5.4265041E+00
  -8.2476244E+00  -6.8817453E+00  -7.0462751E-01
   9.3310356E-02  -4.3486214E-01   1.8120003E-01
   1.2473106E-01  -4.1184711E-01   2.0820951E-01
   1.4537096E-01  -3.8581467E-01   2.4306631E-01
   1.5477085E-01  -3.5969448E-01   2.8173971E-01
   1.5417767E-01  -3.3586884E-01   3.2047153E-01
   1.4590454E-01  -3.1588459E-01   3.5646141E-01
   1.3259220E-01  -3.0035973E-01   3.8802147E-01
   1.1668968E-01  -2.8922129E-01   4.1443929E-01
   1.0012960E-01  -2.8193712E-01   4.3575197E-01
   8.4230900E-02  -2.7775097E-01   4.5245314E-01
  -1.0336289E+01  -1.2915621E+00   3.1600676E+00
  -1.0681841E+01  -1.3256711E+00   3.2444315E+00
  -1.1036694E+01  -1.3610260E+00   3.3292124E+00
  -1.1401098E+01  -1.3977655E+00   3.4140911E+00
  -1.1775352E+01  -1.4360507E+00   3.4987066E+00
  -1.2159803E+01  -1.4760675E+00   3.5826504E+00
  -1.2554857E+01  -1.5180304E+00   3.6654618E+00
  -1.2960983E+01  -1.5621846E+00   3.7466197E+00
  -1.3378725E+01  -1.6088098E+00   3.8255343E+00
  -1.3808709E+01  -1.6582246E+00   3.9015396E+00
  -1.4251646E+01  -1.7107902E+00   3.9738817E+00
  -1.4708338E+01  -1.7669151E+00   4.0417075E+00
  -1.5179688E+01  -1.8270611E+00   4.1040535E+00
  -1.5666692E+01  -1.8917482E+00   4.1598310E+00
  -1.6170450E+01  -1.9615635E+00   4.2078166E+00
  -1.6692156E+01  -2.0371675E+00   4.2466335E+00
  -1.7233093E+01  -2.1193066E+00   4.2747455E+00
  -1.7794630E+01  -2.2088220E+00   4.2904420E+00
  -1.8378204E+01  -2.3066683E+00   4.2918315E+00
  -1.8985304E+01  -2.4139295E+00   4.2768331E+00
  -1.9617464E+01  -2.5318415E+00   4.2431750E+00
  -2.0276234E+01  -2.6618233E+00   4.1883936E+00
  -2.0963161E+01  -2.8055093E+00   4.1098313E+00
  -2.1679770E+01  -2.9647961E+00   4.0046401E+00
  -2.2427525E+01  -3.1418943E+00   3.8697751E+00
  -2.3207804E+01  -3.3393955E+00   3.7020082E+00
  -2.4021839E+01  -3.5603566E+00   3.4979017E+00
  -2.4870655E+01  -3.8083949E+00   3.2538118E+00
  -2.5754967E+01  -4.0878105E+00   2.9658854E+00
  -2.6675047E+01  -4.4037323E+00   2.6300695E+00
  -2.7630562E+01  -4.7622871E+00   2.2421389E+00
  -2.8620346E+01  -5.1708078E+00   1.7977588E+00
  -2.9642138E+01  -5.6380596E+00   1.2925788E+00
  -3.0692272E+01  -6.1744928E+00   7.2235644E-01
  -3.1765270E+01  -6.7924633E+00   8.3097100E-02
  -3.2853325E+01  -7.5064020E+00  -6.2880588E-01
  -3.3945591E+01  -8.3327923E+00  -1.4164288E+00
  -3.5027138E+01  -9.2898226E+00  -2.2821362E+00
  -3.6077488E+01  -1.0396441E+01  -3.2272115E+00
  -3.7068665E+01  -1.1670544E+01  -4.2510319E+00
  -3.7962872E+01  -1.3125875E+01  -5.3492947E+00
  -3.8710350E+01  -1.4767335E+01  -6.5107508E+00
  -3.9248524E+01  -1.6584549E+01  -7.7119150E+00
  -3.9504280E+01  -1.8544107E+01  -8.9097061E+00
  -3.9401558E+01  -2.0581694E+01  -1.0033043E+01
  -3.8876026E+01  -2.2596563E+01  -1.0975893E+01
  -3.7896675E+01  -2.4451847E+01  -1.1595758E+01
  -3.6490494E+01  -2.5984371E+01  -1.1721926E+01
  -3.4762280E+01  -2.7025475E+01  -1.1175939E+01
  -3.2899124E+01  -2.7430424E+01  -9.8016768E+00
  -3.1152103E+01  -2.7108364E+01  -7.4964471E+00
  -8.9503632E+00  -8.1709547E+00  -1.2070255E+00
   1.5100574E-01  -3.7301254E-01   1.4515209E-01
   1.7250252E-01  -3.4547424E-01   1.9213772E-01
   1.7989159E-01  -3.1943130E-01   2.4299431E-01
   1.7533875E-01  -2.9731178E-01   2.9268932E-01
   1.6218662E-01  -2.8036690E-01   3.3769703E-01
   1.4399719E-01  -2.6878071E-01   3.7607217E-01
   1.2378693E-01  -2.6198721E-01   4.0732652E-01
   1.0377312E-01  -2.5904036E-01   4.3186688E-01
   8.5325241E-02  -2.5890446E-01   4.5059249E-01
  -1.0358073E+01  -1.1766304E+00   3.1467493E+00
  -1.0704425E+01  -1.2068949E+00   3.2295277E+00
  -1.1060202E+01  -1.2382642E+00   3.3126035E+00
  -1.1425681E+01  -1.2708619E+00   3.3956552E+00
  -1.1801181E+01  -1.3048313E+00   3.4783211E+00
  -1.2187078E+01  -1.3403389E+00   3.5601912E+00
  -1.2583807E+01  -1.3775761E+00   3.6408041E+00
  -1.2991871E+01  -1.4167619E+00   3.7196369E+00
  -1.3411850E+01  -1.4581472E+00   3.7961001E+00
  -1.3844407E+01  -1.5020173E+00   3.8695250E+00
  -1.4290298E+01  -1.5486966E+00   3.9391558E+00
  -1.4750375E+01  -1.5985531E+00   4.0041366E+00
  -1.5225589E+01  -1.6520023E+00   4.0634990E+00
  -1.5716998E+01  -1.7095152E+00   4.1161489E+00
  -1.6225765E+01  -1.7716235E+00   4.1608524E+00
  -1.6753157E+01  -1.8389288E+00   4.1962228E+00
  -1.7300537E+01  -1.9121124E+00   4.2207065E+00
  -1.7869364E+01  -1.9919471E+00   4.2325711E+00
  -1.8461185E+01  -2.0793130E+00   4.2298942E+00
  -1.9077618E+01  -2.1752162E+00   4.2105560E+00
  -1.9720339E+01  -2.2808120E+00   4.1722307E+00
  -2.0391073E+01  -2.3974349E+00   4.1123824E+00
  -2.1091587E+01  -2.5266347E+00   4.0282564E+00
  -2.1823656E+01  -2.6702235E+00   3.9168754E+00
  -2.2589060E+01  -2.8303332E+00   3.7750220E+00
  -2.3389559E+01  -3.0094876E+00   3.5992384E+00
  -2.4226852E+01  -3.2106905E+00   3.3857827E+00
  -2.5102533E+01  -3.4375389E+00   3.1306138E+00
  -2.6018019E+01  -3.6943569E+00   2.8293552E+00
  -2.6974445E+01  -3.9863701E+00   2.4772696E+00
  -2.7972536E+01  -4.3199100E+00   2.0692298E+00
  -2.9012423E+01  -4.7026739E+00   1.5997102E+00
  -3.0093428E+01  -5.1440182E+00   1.0627728E+00
  -3.1213764E+01  -5.6553049E+00   4.5204446E-01
  -3.2370140E+01  -6.2502594E+00  -2.3933710E-01
  -3.3557144E+01  -6.9452810E+00  -1.0188348E+00
  -3.4766338E+01  -7.7596426E+00  -1.8946711E+00
  -3.5984772E+01  -8.7153358E+00  -2.8759403E+00
  -3.7192818E+01  -9.8363781E+00  -3.9724848E+00
  -3.8361084E+01  -1.1147112E+01  -5.1940784E+00
  -3.9446491E+01  -1.2669060E+01  -6.5482168E+00
  -4.0388145E+01  -1.4415715E+01  -8.0356455E+00
  -4.1104431E+01  -1.6384945E+01  -9.6426411E+00
  -4.1493816E+01  -1.8549038E+01  -1.1329793E+01
  -4.1442810E+01  -2.0843615E+01  -1.3018279E+01
  -4.0844505E+01  -2.3158287E+01  -1.4577085E+01
  -3.9628574E+01  -2.5333967E+01  -1.5817267E+01
  -3.7798691E+01  -2.7172417E+01  -1.6501005E+01
  -3.5465729E+01  -2.8461981E+01  -1.6371004E+01
  -3.2860065E+01  -2.9017149E+01  -1.5198139E+01
  -3.0308712E+01  -2.8721455E+01  -1.2834118E+01
  -2.8176426E+01  -2.7557005E+01  -9.2475510E+00
  -5.4664230E-01  -9.8527336E-01  -3.8352966E-02
   1.9875240E-01  -2.7906990E-01   1.4668846E-01
   2.0218086E-01  -2.5699711E-01   2.1098804E-01
   1.9207668E-01  -2.4077797E-01   2.7204084E-01
   1.7305565E-01  -2.3093891E-01   3.2569551E-01
   1.4958858E-01  -2.2689915E-01   3.7011719E-01
   1.2519264E-01  -2.2742605E-01   4.0520465E-01
   1.0219955E-01  -2.3114443E-01   4.3193853E-01
   8.1860542E-02  -2.3677874E-01   4.5175806E-01
  -1.0371841E+01  -1.0563300E+00   3.1312823E+00
  -1.0718748E+01  -1.0825776E+00   3.2126126E+00
  -1.1075191E+01  -1.1097839E+00   3.2941420E+00
  -1.1441465E+01  -1.1380564E+00   3.3755486E+00
  -1.1817912E+01  -1.1675209E+00   3.4564707E+00
  -1.2204930E+01  -1.1983221E+00   3.5364981E+00
  -1.2602982E+01  -1.2306274E+00   3.6151700E+00
  -1.3012600E+01  -1.2646289E+00   3.6919641E+00
  -1.3434395E+01  -1.3005461E+00   3.7662909E+00
  -1.3869068E+01  -1.3386294E+00   3.8374827E+00
  -1.4317412E+01  -1.3791635E+00   3.9047828E+00
  -1.4780324E+01  -1.4224722E+00   3.9673347E+00
  -1.5258802E+01  -1.4689223E+00   4.0241680E+00
  -1.5753957E+01  -1.5189294E+00   4.0741854E+00
  -1.6267012E+01  -1.5729645E+00   4.1161470E+00
  -1.6799295E+01  -1.6315626E+00   4.1486583E+00
  -1.7352257E+01  -1.6953309E+00   4.1701522E+00
  -1.7927435E+01  -1.7649615E+00   4.1788783E+00
  -1.8526482E+01  -1.8412464E+00   4.1728911E+00
  -1.9151131E+01  -1.9250948E+00   4.1500354E+00
  -1.9803207E+01  -2.0175571E+00   4.1079373E+00
  -2.0484608E+01  -2.1198535E+00   4.0439963E+00
  -2.1197306E+01  -2.2334111E+00   3.9553685E+00
  -2.1943333E+01  -2.3599098E+00   3.8389556E+00
  -2.2724783E+01  -2.5013404E+00   3.6913767E+00
  -2.3543800E+01  -2.6600795E+00   3.5089571E+00
  -2.4402565E+01  -2.8389792E+00   3.2876606E+00
  -2.5303265E+01  -3.0414870E+00   3.0230572E+00
  -2.6248055E+01  -3.2717891E+00   2.7102523E+00
  -2.7239000E+01  -3.5349996E+00   2.3438179E+00
  -2.8277979E+01  -3.8373933E+00   1.9177078E+00
  -2.9366575E+01  -4.1866941E+00   1.4251528E+00
  -3.0505905E+01  -4.5924320E+00   8.5853016E-01
  -3.1696384E+01  -5.0663633E+00   2.0916516E-01
  -3.2937363E+01  -5.6229420E+00  -5.3296590E-01
  -3.4226463E+01  -6.2797937E+00  -1.3796576E+00
  -3.5558514E+01  -7.0581131E+00  -2.3450208E+00
  -3.6923687E+01  -7.9828010E+00  -3.4460442E+00
  -3.8304649E+01  -9.0820856E+00  -4.7028832E+00
  -3.9672192E+01  -1.0386127E+01  -6.1382794E+00
  -4.0979557E+01  -1.1924083E+01  -7.7751622E+00
  -4.2155788E+01  -1.3718775E+01  -9.6310635E+00
  -4.3099827E+01  -1.5778254E+01  -1.1707819E+01
  -4.3678627E+01  -1.8083916E+01  -1.3975620E+01
  -4.3734329E+01  -2.0576080E+01  -1.6352102E+01
  -4.3105957E+01  -2.3140141E+01  -1.8680727E+01
  -4.1669357E+01  -2.5599424E+01  -2.0717316E+01
  -3.9391438E+01  -2.7723003E+01  -2.2137634E+01
  -3.6383213E+01  -2.9255259E+01  -2.2577042E+01
  -3.2925652E+01  -2.9966370E+01  -2.1702560E+01
  -2.9443363E+01  -2.9710140E+01  -1.9297596E+01
  -2.6421329E+01  -2.8466003E+01  -1.5324068E+01
  -2.4290821E+01  -2.6344496E+01  -9.9291735E+00
   2.1957588E-01  -1.8202209E-01   1.1897469E-01
   2.1660233E-01  -1.6971970E-01   1.9581890E-01
   1.9948387E-01  -1.6522598E-01   2.6636982E-01
   1.7413139E-01  -1.6772270E-01   3.2628775E-01
   1.4577484E-01  -1.7552948E-01   3.7420177E-01
   1.1813450E-01  -1.8670511E-01   4.1077590E-01
   9.3373299E-02  -1.9948006E-01   4.3770927E-01
   7.2412491E-02  -2.1252728E-01   4.5703056E-01
  -1.0379578E+01  -9.3118703E-01   3.1147592E+00
  -1.0726854E+01  -9.5326471E-01   3.1947985E+00
  -1.1083761E+01  -9.7615010E-01   3.2749584E+00
  -1.1450609E+01  -9.9993449E-01   3.3549180E+00
  -1.1827760E+01  -1.0247242E+00   3.4343150E+00
  -1.2215632E+01  -1.0506425E+00   3.5127413E+00
  -1.2614710E+01  -1.0778311E+00   3.5897367E+00
  -1.3025552E+01  -1.1064534E+00   3.6647809E+00
  -1.3448799E+01  -1.1366959E+00   3.7372851E+00
  -1.3885182E+01  -1.1687719E+00   3.8065836E+00
  -1.4335528E+01  -1.2029240E+00   3.8719208E+00
  -1.4800771E+01  -1.2394288E+00   3.9324403E+00
  -1.5281953E+01  -1.2785994E+00   3.9871721E+00
  -1.5780231E+01  -1.3207921E+00   4.0350165E+00
  -1.6296881E+01  -1.3664117E+00   4.0747313E+00
  -1.6833296E+01  -1.4159182E+00   4.1049142E+00
  -1.7390985E+01  -1.4698362E+00   4.1239905E+00
  -1.7971575E+01  -1.5287654E+00   4.1301961E+00
  -1.8576809E+01  -1.5933945E+00   4.1215634E+00
  -1.9208532E+01  -1.6645176E+00   4.0959082E+00
  -1.9868702E+01  -1.7430564E+00   4.0508165E+00
  -2.0559376E+01  -1.8300872E+00   3.9836287E+00
  -2.1282726E+01  -1.9268752E+00   3.8914223E+00
  -2.2041027E+01  -2.0349188E+00   3.7709887E+00
  -2.2836672E+01  -2.1560044E+00   3.6187978E+00
  -2.3672176E+01  -2.2922783E+00   3.4309733E+00
  -2.4550190E+01  -2.4463358E+00   3.2032061E+00
  -2.5473486E+01  -2.6213369E+00   2.9306993E+00
  -2.6444965E+01  -2.8211529E+00   2.6080651E+00
  -2.7467617E+01  -3.0505540E+00   2.2292101E+00
  -2.8544521E+01  -3.3154540E+00   1.7871838E+00
  -2.9678770E+01  -3.6232126E+00   1.2739855E+00
  -3.0873390E+01  -3.9830203E+00   6.8029171E-01
  -3.2131199E+01  -4.4063659E+00  -4.9337149E-03
  -3.3454483E+01  -4.9075861E+00  -7.9500401E-01
  -3.4844376E+01  -5.5044641E+00  -1.7063043E+00
  -3.6299683E+01  -6.2188101E+00  -2.7593017E+00
  -3.7814735E+01  -7.0768633E+00  -3.9796796E+00
  -3.9375889E+01  -8.1092825E+00  -5.3992548E+00
  -4.0955986E+01  -9.3502007E+00  -7.0559039E+00
  -4.2506725E+01  -1.0834741E+01  -8.9912910E+00
  -4.3949089E+01  -1.2593983E+01  -1.1244504E+01
  -4.5163704E+01  -1.4646357E+01  -1.3839235E+01
  -4.5984901E+01  -1.6984524E+01  -1.6762486E+01
  -4.6205322E+01  -1.9558304E+01  -1.9934755E+01
  -4.5599693E+01  -2.2256411E+01  -2.3176275E+01
  -4.3975182E+01  -2.4894209E+01  -2.6181412E+01
  -4.1246189E+01  -2.7217947E+01  -2.8520861E+01
  -3.7514507E+01  -2.8936262E+01  -2.9692238E+01
  -3.3116043E+01  -2.9779884E+01  -2.9223425E+01
  -2.8593506E+01  -2.9574379E+01  -2.6802624E+01
  -2.4582434E+01  -2.8295223E+01  -2.2378441E+01
  -2.1648043E+01  -2.6076450E+01  -1.6175503E+01
  -1.7530247E+01  -2.0200926E+01  -7.4906216E+00
   2.1654892E-01  -5.9793472E-02   2.1066284E-01
   1.9153214E-01  -7.3721886E-02   2.8529644E-01
   1.6044807E-01  -9.4139099E-02   3.4606075E-01
   1.2877178E-01  -1.1803722E-01   3.9262724E-01
   9.9919319E-02  -1.4280081E-01   4.2668891E-01
   7.5504303E-02  -1.6656065E-01   4.5074391E-01
   5.5868149E-02  -1.8816900E-01   4.6728718E-01
  -1.0383116E+01  -8.0185288E-01   3.0985980E+00
  -1.0730626E+01  -8.1962794E-01   3.1775305E+00
  -1.1087844E+01  -8.3805531E-01   3.2565229E+00
  -1.1455094E+01  -8.5720921E-01   3.3352549E+00
  -1.1832754E+01  -8.7717617E-01   3.4133654E+00
  -1.2221260E+01  -8.9805609E-01   3.4904482E+00
  -1.2621114E+01  -9.1996479E-01   3.5660441E+00
  -1.3032899E+01  -9.4303483E-01   3.6396348E+00
  -1.3457276E+01  -9.6741861E-01   3.7106345E+00
  -1.3895003E+01  -9.9328983E-01   3.7783778E+00
  -1.4346938E+01  -1.0208467E+00   3.8421116E+00
  -1.4814046E+01  -1.0503150E+00   3.9009812E+00
  -1.5297403E+01  -1.0819514E+00   3.9540164E+00
  -1.5798209E+01  -1.1160481E+00   4.0001173E+00
  -1.6317785E+01  -1.1529369E+00   4.0380402E+00
  -1.6857574E+01  -1.1929972E+00   4.0663786E+00
  -1.7419146E+01  -1.2366617E+00   4.0835509E+00
  -1.8004200E+01  -1.2844265E+00   4.0877819E+00
  -1.8614557E+01  -1.3368630E+00   4.0770869E+00
  -1.9252161E+01  -1.3946331E+00   4.0492582E+00
  -1.9919088E+01  -1.4585069E+00   4.0018468E+00
  -2.0617542E+01  -1.5293880E+00   3.9321427E+00
  -2.1349869E+01  -1.6083428E+00   3.8371551E+00
  -2.2118557E+01  -1.6966397E+00   3.7135808E+00
  -2.2926279E+01  -1.7957993E+00   3.5577583E+00
  -2.3775888E+01  -1.9076575E+00   3.3656328E+00
  -2.4670467E+01  -2.0344472E+00   3.1326528E+00
  -2.5613329E+01  -2.1789029E+00   2.8536911E+00
  -2.6608065E+01  -2.3443980E+00   2.5229142E+00
  -2.7658564E+01  -2.5351200E+00   2.1336172E+00
  -2.8769037E+01  -2.7563007E+00   1.6780157E+00
  -2.9944050E+01  -3.0145097E+00   1.1469525E+00
  -3.1188522E+01  -3.3180304E+00   5.2949017E-01