# vtk DataFile Version 3.0
SM polar seed points transformed to GSW coordinates
ASCII
DATASET POLYDATA
POINTS      288 float
       0.600467       0.000000       1.374569
       0.575071       0.194114       1.371719
       0.500612       0.375000       1.363364
       0.382167       0.530330       1.350074
       0.227806       0.649519       1.332753
       0.048048       0.724444       1.312582
      -0.144856       0.750000       1.290936
      -0.337759       0.724444       1.269291
      -0.517517       0.649519       1.249120
      -0.671878       0.530330       1.231799
      -0.790324       0.375000       1.218509
      -0.864782       0.194114       1.210154
      -0.890178      -0.000000       1.207304
      -0.864782      -0.194114       1.210154
      -0.790324      -0.375000       1.218509
      -0.671878      -0.530330       1.231799
      -0.517517      -0.649519       1.249120
      -0.337759      -0.724444       1.269291
      -0.144856      -0.750000       1.290936
       0.048048      -0.724444       1.312582
       0.227805      -0.649519       1.332753
       0.382167      -0.530330       1.350074
       0.500612      -0.375000       1.363364
       0.575070      -0.194114       1.371719
       0.478380       0.000000       1.421672
       0.456914       0.164072       1.419264
       0.393980       0.316964       1.412202
       0.293865       0.448254       1.400968
       0.163393       0.548997       1.386328
       0.011456       0.612327       1.369279
      -0.151594       0.633927       1.350983
      -0.314643       0.612327       1.332687
      -0.466580       0.548997       1.315639
      -0.597052       0.448254       1.300998
      -0.697167       0.316964       1.289765
      -0.760101       0.164073       1.282703
      -0.781567      -0.000000       1.280294
      -0.760101      -0.164073       1.282703
      -0.697167      -0.316964       1.289765
      -0.597052      -0.448254       1.300998
      -0.466580      -0.548997       1.315639
      -0.314643      -0.612327       1.332687
      -0.151593      -0.633927       1.350983
       0.011456      -0.612327       1.369279
       0.163393      -0.548997       1.386328
       0.293865      -0.448254       1.400968
       0.393980      -0.316964       1.412202
       0.456914      -0.164073       1.419264
       0.352653       0.000000       1.457956
       0.335281       0.132782       1.456007
       0.284349       0.256515       1.450292
       0.203327       0.362767       1.441200
       0.097738       0.444297       1.429352
      -0.025224       0.495549       1.415555
      -0.157178       0.513030       1.400748
      -0.289131       0.495549       1.385942
      -0.412093       0.444297       1.372144
      -0.517682       0.362767       1.360296
      -0.598704       0.256515       1.351205
      -0.649636       0.132782       1.345490
      -0.667008      -0.000000       1.343540
      -0.649636      -0.132782       1.345490
      -0.598704      -0.256515       1.351205
      -0.517682      -0.362767       1.360296
      -0.412093      -0.444297       1.372144
      -0.289131      -0.495549       1.385942
      -0.157178      -0.513030       1.400748
      -0.025224      -0.495549       1.415555
       0.097738      -0.444297       1.429352
       0.203327      -0.362767       1.441200
       0.284349      -0.256515       1.450292
       0.335281      -0.132782       1.456007
       0.224242       0.000000       1.483144
       0.211096       0.100481       1.481669
       0.172553       0.194114       1.477344
       0.111241       0.274519       1.470464
       0.031338       0.336216       1.461498
      -0.061711       0.375000       1.451057
      -0.161566       0.388229       1.439852
      -0.261420       0.375000       1.428648
      -0.354469       0.336216       1.418207
      -0.434373       0.274519       1.409241
      -0.495684       0.194114       1.402361
      -0.534227       0.100481       1.398036
      -0.547373      -0.000000       1.396561
      -0.534227      -0.100481       1.398036
      -0.495684      -0.194114       1.402361
      -0.434373      -0.274519       1.409241
      -0.354469      -0.336216       1.418207
      -0.261420      -0.375000       1.428648
      -0.161566      -0.388229       1.439852
      -0.061711      -0.375000       1.451057
       0.031338      -0.336216       1.461498
       0.111241      -0.274519       1.470464
       0.172553      -0.194114       1.477344
       0.211096      -0.100481       1.481669
       0.094124       0.000000       1.497044
       0.085304       0.067415       1.496054
       0.059445       0.130236       1.493153
       0.018309       0.184182       1.488537
      -0.035300       0.225576       1.482521
      -0.097729       0.251597       1.475516
      -0.164724       0.260472       1.467999
      -0.231719       0.251597       1.460481
      -0.294148       0.225576       1.453476
      -0.347757       0.184182       1.447461
      -0.388893       0.130236       1.442845
      -0.414752       0.067415       1.439943
      -0.423572      -0.000000       1.438953
      -0.414752      -0.067415       1.439943
      -0.388893      -0.130236       1.442845
      -0.347757      -0.184182       1.447461
      -0.294148      -0.225576       1.453476
      -0.231719      -0.251597       1.460481
      -0.164724      -0.260472       1.467999
      -0.097729      -0.251597       1.475516
      -0.035300      -0.225576       1.482521
       0.018309      -0.184182       1.488537
       0.059445      -0.130236       1.493153
       0.085304      -0.067415       1.496054
      -0.036710       0.000000       1.499551
      -0.041137       0.033836       1.499054
      -0.054116       0.065367       1.497598
      -0.074762       0.092443       1.495281
      -0.101669       0.113219       1.492262
      -0.133003       0.126279       1.488746
      -0.166628       0.130734       1.484973
      -0.200254       0.126279       1.481200
      -0.231588       0.113219       1.477684
      -0.258495       0.092443       1.474664
      -0.279141       0.065367       1.472348
      -0.292120       0.033836       1.470891
      -0.296547      -0.000000       1.470394
      -0.292120      -0.033836       1.470891
      -0.279141      -0.065367       1.472348
      -0.258495      -0.092443       1.474664
      -0.231588      -0.113219       1.477684
      -0.200254      -0.126279       1.481200
      -0.166628      -0.130734       1.484973
      -0.133003      -0.126279       1.488746
      -0.101669      -0.113219       1.492262
      -0.074762      -0.092443       1.495281
      -0.054116      -0.065367       1.497598
      -0.041137      -0.033836       1.499054
       0.890178       0.000000      -1.207304
       0.864782       0.194114      -1.210154
       0.790324       0.375000      -1.218509
       0.671878       0.530330      -1.231799
       0.517517       0.649519      -1.249120
       0.337759       0.724444      -1.269291
       0.144856       0.750000      -1.290936
      -0.048048       0.724444      -1.312582
      -0.227806       0.649519      -1.332753
      -0.382167       0.530330      -1.350074
      -0.500612       0.375000      -1.363364
      -0.575070       0.194114      -1.371719
      -0.600467      -0.000000      -1.374569
      -0.575071      -0.194114      -1.371719
      -0.500612      -0.375000      -1.363364
      -0.382167      -0.530330      -1.350074
      -0.227805      -0.649519      -1.332753
      -0.048048      -0.724444      -1.312582
       0.144856      -0.750000      -1.290936
       0.337759      -0.724444      -1.269291
       0.517517      -0.649519      -1.249120
       0.671878      -0.530330      -1.231799
       0.790324      -0.375000      -1.218509
       0.864782      -0.194114      -1.210154
       0.781567       0.000000      -1.280294
       0.760101       0.164072      -1.282703
       0.697167       0.316964      -1.289765
       0.597052       0.448254      -1.300998
       0.466580       0.548997      -1.315639
       0.314643       0.612327      -1.332687
       0.151593       0.633927      -1.350983
      -0.011456       0.612327      -1.369279
      -0.163393       0.548997      -1.386328
      -0.293865       0.448254      -1.400968
      -0.393980       0.316964      -1.412202
      -0.456914       0.164073      -1.419264
      -0.478380      -0.000000      -1.421672
      -0.456914      -0.164073      -1.419264
      -0.393980      -0.316964      -1.412202
      -0.293865      -0.448254      -1.400968
      -0.163393      -0.548997      -1.386328
      -0.011456      -0.612327      -1.369279
       0.151594      -0.633927      -1.350983
       0.314643      -0.612327      -1.332687
       0.466580      -0.548997      -1.315639
       0.597052      -0.448254      -1.300998
       0.697167      -0.316964      -1.289765
       0.760101      -0.164073      -1.282703
       0.667008       0.000000      -1.343540
       0.649636       0.132782      -1.345490
       0.598704       0.256515      -1.351205
       0.517682       0.362767      -1.360296
       0.412093       0.444297      -1.372144
       0.289132       0.495549      -1.385942
       0.157178       0.513030      -1.400748
       0.025224       0.495549      -1.415555
      -0.097738       0.444297      -1.429352
      -0.203327       0.362767      -1.441200
      -0.284349       0.256515      -1.450292
      -0.335281       0.132782      -1.456007
      -0.352653      -0.000000      -1.457956
      -0.335281      -0.132782      -1.456007
      -0.284349      -0.256515      -1.450292
      -0.203327      -0.362767      -1.441200
      -0.097738      -0.444297      -1.429352
       0.025224      -0.495549      -1.415555
       0.157178      -0.513030      -1.400748
       0.289131      -0.495549      -1.385942
       0.412093      -0.444297      -1.372144
       0.517682      -0.362767      -1.360296
       0.598704      -0.256515      -1.351205
       0.649636      -0.132782      -1.345490
       0.547373       0.000000      -1.396561
       0.534227       0.100481      -1.398036
       0.495684       0.194114      -1.402361
       0.434372       0.274519      -1.409241
       0.354469       0.336216      -1.418207
       0.261420       0.375000      -1.428648
       0.161565       0.388229      -1.439853
       0.061711       0.375000      -1.451057
      -0.031338       0.336216      -1.461498
      -0.111241       0.274519      -1.470464
      -0.172553       0.194114      -1.477344
      -0.211096       0.100481      -1.481669
      -0.224242      -0.000000      -1.483144
      -0.211096      -0.100481      -1.481669
      -0.172553      -0.194114      -1.477344
      -0.111241      -0.274519      -1.470464
      -0.031338      -0.336216      -1.461498
       0.061711      -0.375000      -1.451057
       0.161566      -0.388229      -1.439852
       0.261420      -0.375000      -1.428648
       0.354469      -0.336216      -1.418207
       0.434372      -0.274519      -1.409241
       0.495684      -0.194114      -1.402361
       0.534227      -0.100481      -1.398036
       0.423572       0.000000      -1.438953
       0.414752       0.067415      -1.439943
       0.388893       0.130236      -1.442845
       0.347757       0.184182      -1.447461
       0.294148       0.225576      -1.453476
       0.231719       0.251597      -1.460481
       0.164724       0.260472      -1.467999
       0.097729       0.251597      -1.475516
       0.035300       0.225576      -1.482521
      -0.018309       0.184182      -1.488537
      -0.059445       0.130236      -1.493153
      -0.085304       0.067415      -1.496054
      -0.094124      -0.000000      -1.497044
      -0.085304      -0.067415      -1.496054
      -0.059445      -0.130236      -1.493153
      -0.018309      -0.184182      -1.488537
       0.035300      -0.225576      -1.482521
       0.097729      -0.251597      -1.475516
       0.164724      -0.260472      -1.467999
       0.231719      -0.251597      -1.460481
       0.294148      -0.225576      -1.453476
       0.347757      -0.184182      -1.447461
       0.388893      -0.130236      -1.442845
       0.414752      -0.067415      -1.439943
       0.296547       0.000000      -1.470394
       0.292120       0.033836      -1.470891
       0.279141       0.065367      -1.472348
       0.258495       0.092443      -1.474664
       0.231588       0.113219      -1.477684
       0.200254       0.126279      -1.481200
       0.166628       0.130734      -1.484973
       0.133003       0.126279      -1.488746
       0.101669       0.113219      -1.492262
       0.074762       0.092443      -1.495281
       0.054116       0.065367      -1.497598
       0.041137       0.033836      -1.499054
       0.036710      -0.000000      -1.499551
       0.041137      -0.033836      -1.499054
       0.054116      -0.065367      -1.497598
       0.074762      -0.092443      -1.495281
       0.101669      -0.113219      -1.492262
       0.133003      -0.126279      -1.488746
       0.166628      -0.130734      -1.484973
       0.200254      -0.126279      -1.481200
       0.231588      -0.113219      -1.477684
       0.258495      -0.092443      -1.474664
       0.279141      -0.065367      -1.472348
       0.292120      -0.033836      -1.470891
VERTICES      288     576
 1        0
 1        1
 1        2
 1        3
 1        4
 1        5
 1        6
 1        7
 1        8
 1        9
 1       10
 1       11
 1       12
 1       13
 1       14
 1       15
 1       16
 1       17
 1       18
 1       19
 1       20
 1       21
 1       22
 1       23
 1       24
 1       25
 1       26
 1       27
 1       28
 1       29
 1       30
 1       31
 1       32
 1       33
 1       34
 1       35
 1       36
 1       37
 1       38
 1       39
 1       40
 1       41
 1       42
 1       43
 1       44
 1       45
 1       46
 1       47
 1       48
 1       49
 1       50
 1       51
 1       52
 1       53
 1       54
 1       55
 1       56
 1       57
 1       58
 1       59
 1       60
 1       61
 1       62
 1       63
 1       64
 1       65
 1       66
 1       67
 1       68
 1       69
 1       70
 1       71
 1       72
 1       73
 1       74
 1       75
 1       76
 1       77
 1       78
 1       79
 1       80
 1       81
 1       82
 1       83
 1       84
 1       85
 1       86
 1       87
 1       88
 1       89
 1       90
 1       91
 1       92
 1       93
 1       94
 1       95
 1       96
 1       97
 1       98
 1       99
 1      100
 1      101
 1      102
 1      103
 1      104
 1      105
 1      106
 1      107
 1      108
 1      109
 1      110
 1      111
 1      112
 1      113
 1      114
 1      115
 1      116
 1      117
 1      118
 1      119
 1      120
 1      121
 1      122
 1      123
 1      124
 1      125
 1      126
 1      127
 1      128
 1      129
 1      130
 1      131
 1      132
 1      133
 1      134
 1      135
 1      136
 1      137
 1      138
 1      139
 1      140
 1      141
 1      142
 1      143
 1      144
 1      145
 1      146
 1      147
 1      148
 1      149
 1      150
 1      151
 1      152
 1      153
 1      154
 1      155
 1      156
 1      157
 1      158
 1      159
 1      160
 1      161
 1      162
 1      163
 1      164
 1      165
 1      166
 1      167
 1      168
 1      169
 1      170
 1      171
 1      172
 1      173
 1      174
 1      175
 1      176
 1      177
 1      178
 1      179
 1      180
 1      181
 1      182
 1      183
 1      184
 1      185
 1      186
 1      187
 1      188
 1      189
 1      190
 1      191
 1      192
 1      193
 1      194
 1      195
 1      196
 1      197
 1      198
 1      199
 1      200
 1      201
 1      202
 1      203
 1      204
 1      205
 1      206
 1      207
 1      208
 1      209
 1      210
 1      211
 1      212
 1      213
 1      214
 1      215
 1      216
 1      217
 1      218
 1      219
 1      220
 1      221
 1      222
 1      223
 1      224
 1      225
 1      226
 1      227
 1      228
 1      229
 1      230
 1      231
 1      232
 1      233
 1      234
 1      235
 1      236
 1      237
 1      238
 1      239
 1      240
 1      241
 1      242
 1      243
 1      244
 1      245
 1      246
 1      247
 1      248
 1      249
 1      250
 1      251
 1      252
 1      253
 1      254
 1      255
 1      256
 1      257
 1      258
 1      259
 1      260
 1      261
 1      262
 1      263
 1      264
 1      265
 1      266
 1      267
 1      268
 1      269
 1      270
 1      271
 1      272
 1      273
 1      274
 1      275
 1      276
 1      277
 1      278
 1      279
 1      280
 1      281
 1      282
 1      283
 1      284
 1      285
 1      286
 1      287
POINT_DATA      288
SCALARS hemisphere int 1
LOOKUP_TABLE default
 1
 1
 1
 1
 1
 1
 1
 1
 1
 1
 1
 1
 1
 1
 1
 1
 1
 1
 1
 1
 1
 1
 1
 1
 1
 1
 1
 1
 1
 1
 1
 1
 1
 1
 1
 1
 1
 1
 1
 1
 1
 1
 1
 1
 1
 1
 1
 1
 1
 1
 1
 1
 1
 1
 1
 1
 1
 1
 1
 1
 1
 1
 1
 1
 1
 1
 1
 1
 1
 1
 1
 1
 1
 1
 1
 1
 1
 1
 1
 1
 1
 1
 1
 1
 1
 1
 1
 1
 1
 1
 1
 1
 1
 1
 1
 1
 1
 1
 1
 1
 1
 1
 1
 1
 1
 1
 1
 1
 1
 1
 1
 1
 1
 1
 1
 1
 1
 1
 1
 1
 1
 1
 1
 1
 1
 1
 1
 1
 1
 1
 1
 1
 1
 1
 1
 1
 1
 1
 1
 1
 1
 1
 1
 1
-1
-1
-1
-1
-1
-1
-1
-1
-1
-1
-1
-1
-1
-1
-1
-1
-1
-1
-1
-1
-1
-1
-1
-1
-1
-1
-1
-1
-1
-1
-1
-1
-1
-1
-1
-1
-1
-1
-1
-1
-1
-1
-1
-1
-1
-1
-1
-1
-1
-1
-1
-1
-1
-1
-1
-1
-1
-1
-1
-1
-1
-1
-1
-1
-1
-1
-1
-1
-1
-1
-1
-1
-1
-1
-1
-1
-1
-1
-1
-1
-1
-1
-1
-1
-1
-1
-1
-1
-1
-1
-1
-1
-1
-1
-1
-1
-1
-1
-1
-1
-1
-1
-1
-1
-1
-1
-1
-1
-1
-1
-1
-1
-1
-1
-1
-1
-1
-1
-1
-1
-1
-1
-1
-1
-1
-1
-1
-1
-1
-1
-1
-1
-1
-1
-1
-1
-1
-1
-1
-1
-1
-1
-1
-1
