# vtk DataFile Version 3.0
T01 + IGRF magnetic field in GSW coordinates
ASCII
DATASET STRUCTURED_GRID
DIMENSIONS     61    21    21
POINTS    26901 float
     -50.000000     -10.000000     -10.000000
     -49.000000     -10.000000     -10.000000
     -48.000000     -10.000000     -10.000000
     -47.000000     -10.000000     -10.000000
     -46.000000     -10.000000     -10.000000
     -45.000000     -10.000000     -10.000000
     -44.000000     -10.000000     -10.000000
     -43.000000     -10.000000     -10.000000
     -42.000000     -10.000000     -10.000000
     -41.000000     -10.000000     -10.000000
     -40.000000     -10.000000     -10.000000
     -39.000000     -10.000000     -10.000000
     -38.000000     -10.000000     -10.000000
     -37.000000     -10.000000     -10.000000
     -36.000000     -10.000000     -10.000000
     -35.000000     -10.000000     -10.000000
     -34.000000     -10.000000     -10.000000
     -33.000000     -10.000000     -10.000000
     -32.000000     -10.000000     -10.000000
     -31.000000     -10.000000     -10.000000
     -30.000000     -10.000000     -10.000000
     -29.000000     -10.000000     -10.000000
     -28.000000     -10.000000     -10.000000
     -27.000000     -10.000000     -10.000000
     -26.000000     -10.000000     -10.000000
     -25.000000     -10.000000     -10.000000
     -24.000000     -10.000000     -10.000000
     -23.000000     -10.000000     -10.000000
     -22.000000     -10.000000     -10.000000
     -21.000000     -10.000000     -10.000000
     -20.000000     -10.000000     -10.000000
     -19.000000     -10.000000     -10.000000
     -18.000000     -10.000000     -10.000000
     -17.000000     -10.000000     -10.000000
     -16.000000     -10.000000     -10.000000
     -15.000000     -10.000000     -10.000000
     -14.000000     -10.000000     -10.000000
     -13.000000     -10.000000     -10.000000
     -12.000000     -10.000000     -10.000000
     -11.000000     -10.000000     -10.000000
     -10.000000     -10.000000     -10.000000
      -9.000000     -10.000000     -10.000000
      -8.000000     -10.000000     -10.000000
      -7.000000     -10.000000     -10.000000
      -6.000000     -10.000000     -10.000000
      -5.000000     -10.000000     -10.000000
      -4.000000     -10.000000     -10.000000
      -3.000000     -10.000000     -10.000000
      -2.000000     -10.000000     -10.000000
      -1.000000     -10.000000     -10.000000
       0.000000     -10.000000     -10.000000
       1.000000     -10.000000     -10.000000
       2.000000     -10.000000     -10.000000
       3.000000     -10.000000     -10.000000
       4.000000     -10.000000     -10.000000
       5.000000     -10.000000     -10.000000
       6.000000     -10.000000     -10.000000
       7.000000     -10.000000     -10.000000
       8.000000     -10.000000     -10.000000
       9.000000     -10.000000     -10.000000
      10.000000     -10.000000     -10.000000
     -50.000000      -9.000000     -10.000000
     -49.000000      -9.000000     -10.000000
     -48.000000      -9.000000     -10.000000
     -47.000000      -9.000000     -10.000000
     -46.000000      -9.000000     -10.000000
     -45.000000      -9.000000     -10.000000
     -44.000000      -9.000000     -10.000000
     -43.000000      -9.000000     -10.000000
     -42.000000      -9.000000     -10.000000
     -41.000000      -9.000000     -10.000000
     -40.000000      -9.000000     -10.000000
     -39.000000      -9.000000     -10.000000
     -38.000000      -9.000000     -10.000000
     -37.000000      -9.000000     -10.000000
     -36.000000      -9.000000     -10.000000
     -35.000000      -9.000000     -10.000000
     -34.000000      -9.000000     -10.000000
     -33.000000      -9.000000     -10.000000
     -32.000000      -9.000000     -10.000000
     -31.000000      -9.000000     -10.000000
     -30.000000      -9.000000     -10.000000
     -29.000000      -9.000000     -10.000000
     -28.000000      -9.000000     -10.000000
     -27.000000      -9.000000     -10.000000
     -26.000000      -9.000000     -10.000000
     -25.000000      -9.000000     -10.000000
     -24.000000      -9.000000     -10.000000
     -23.000000      -9.000000     -10.000000
     -22.000000      -9.000000     -10.000000
     -21.000000      -9.000000     -10.000000
     -20.000000      -9.000000     -10.000000
     -19.000000      -9.000000     -10.000000
     -18.000000      -9.000000     -10.000000
     -17.000000      -9.000000     -10.000000
     -16.000000      -9.000000     -10.000000
     -15.000000      -9.000000     -10.000000
     -14.000000      -9.000000     -10.000000
     -13.000000      -9.000000     -10.000000
     -12.000000      -9.000000     -10.000000
     -11.000000      -9.000000     -10.000000
     -10.000000      -9.000000     -10.000000
      -9.000000      -9.000000     -10.000000
      -8.000000      -9.000000     -10.000000
      -7.000000      -9.000000     -10.000000
      -6.000000      -9.000000     -10.000000
      -5.000000      -9.000000     -10.000000
      -4.000000      -9.000000     -10.000000
      -3.000000      -9.000000     -10.000000
      -2.000000      -9.000000     -10.000000
      -1.000000      -9.000000     -10.000000
       0.000000      -9.000000     -10.000000
       1.000000      -9.000000     -10.000000
       2.000000      -9.000000     -10.000000
       3.000000      -9.000000     -10.000000
       4.000000      -9.000000     -10.000000
       5.000000      -9.000000     -10.000000
       6.000000      -9.000000     -10.000000
       7.000000      -9.000000     -10.000000
       8.000000      -9.000000     -10.000000
       9.000000      -9.000000     -10.000000
      10.000000      -9.000000     -10.000000
     -50.000000      -8.000000     -10.000000
     -49.000000      -8.000000     -10.000000
     -48.000000      -8.000000     -10.000000
     -47.000000      -8.000000     -10.000000
     -46.000000      -8.000000     -10.000000
     -45.000000      -8.000000     -10.000000
     -44.000000      -8.000000     -10.000000
     -43.000000      -8.000000     -10.000000
     -42.000000      -8.000000     -10.000000
     -41.000000      -8.000000     -10.000000
     -40.000000      -8.000000     -10.000000
     -39.000000      -8.000000     -10.000000
     -38.000000      -8.000000     -10.000000
     -37.000000      -8.000000     -10.000000
     -36.000000      -8.000000     -10.000000
     -35.000000      -8.000000     -10.000000
     -34.000000      -8.000000     -10.000000
     -33.000000      -8.000000     -10.000000
     -32.000000      -8.000000     -10.000000
     -31.000000      -8.000000     -10.000000
     -30.000000      -8.000000     -10.000000
     -29.000000      -8.000000     -10.000000
     -28.000000      -8.000000     -10.000000
     -27.000000      -8.000000     -10.000000
     -26.000000      -8.000000     -10.000000
     -25.000000      -8.000000     -10.000000
     -24.000000      -8.000000     -10.000000
     -23.000000      -8.000000     -10.000000
     -22.000000      -8.000000     -10.000000
     -21.000000      -8.000000     -10.000000
     -20.000000      -8.000000     -10.000000
     -19.000000      -8.000000     -10.000000
     -18.000000      -8.000000     -10.000000
     -17.000000      -8.000000     -10.000000
     -16.000000      -8.000000     -10.000000
     -15.000000      -8.000000     -10.000000
     -14.000000      -8.000000     -10.000000
     -13.000000      -8.000000     -10.000000
     -12.000000      -8.000000     -10.000000
     -11.000000      -8.000000     -10.000000
     -10.000000      -8.000000     -10.000000
      -9.000000      -8.000000     -10.000000
      -8.000000      -8.000000     -10.000000
      -7.000000      -8.000000     -10.000000
      -6.000000      -8.000000     -10.000000
      -5.000000      -8.000000     -10.000000
      -4.000000      -8.000000     -10.000000
      -3.000000      -8.000000     -10.000000
      -2.000000      -8.000000     -10.000000
      -1.000000      -8.000000     -10.000000
       0.000000      -8.000000     -10.000000
       1.000000      -8.000000     -10.000000
       2.000000      -8.000000     -10.000000
       3.000000      -8.000000     -10.000000
       4.000000      -8.000000     -10.000000
       5.000000      -8.000000     -10.000000
       6.000000      -8.000000     -10.000000
       7.000000      -8.000000     -10.000000
       8.000000      -8.000000     -10.000000
       9.000000      -8.000000     -10.000000
      10.000000      -8.000000     -10.000000
     -50.000000      -7.000000     -10.000000
     -49.000000      -7.000000     -10.000000
     -48.000000      -7.000000     -10.000000
     -47.000000      -7.000000     -10.000000
     -46.000000      -7.000000     -10.000000
     -45.000000      -7.000000     -10.000000
     -44.000000      -7.000000     -10.000000
     -43.000000      -7.000000     -10.000000
     -42.000000      -7.000000     -10.000000
     -41.000000      -7.000000     -10.000000
     -40.000000      -7.000000     -10.000000
     -39.000000      -7.000000     -10.000000
     -38.000000      -7.000000     -10.000000
     -37.000000      -7.000000     -10.000000
     -36.000000      -7.000000     -10.000000
     -35.000000      -7.000000     -10.000000
     -34.000000      -7.000000     -10.000000
     -33.000000      -7.000000     -10.000000
     -32.000000      -7.000000     -10.000000
     -31.000000      -7.000000     -10.000000
     -30.000000      -7.000000     -10.000000
     -29.000000      -7.000000     -10.000000
     -28.000000      -7.000000     -10.000000
     -27.000000      -7.000000     -10.000000
     -26.000000      -7.000000     -10.000000
     -25.000000      -7.000000     -10.000000
[...]
POINT_DATA    26901
VECTORS B_total float
  -9.0531998E+00  -1.0785866E+00   3.2812622E+00
  -9.3685074E+00  -1.1087320E+00   3.3652604E+00
  -9.6933756E+00  -1.1405848E+00   3.4498441E+00
  -1.0028116E+01  -1.1743523E+00   3.5347946E+00
  -1.0373087E+01  -1.2102704E+00   3.6198671E+00
  -1.0728690E+01  -1.2486074E+00   3.7047901E+00
  -1.1095390E+01  -1.2896672E+00   3.7892580E+00
  -1.1473710E+01  -1.3337944E+00   3.8729281E+00
  -1.1864249E+01  -1.3813776E+00   3.9554129E+00
  -1.2267685E+01  -1.4328564E+00   4.0362725E+00
  -1.2684782E+01  -1.4887259E+00   4.1150055E+00
  -1.3116397E+01  -1.5495433E+00   4.1910381E+00
  -1.3563484E+01  -1.6159351E+00   4.2637119E+00
  -1.4027101E+01  -1.6886040E+00   4.3322697E+00
  -1.4508399E+01  -1.7683387E+00   4.3958435E+00
  -1.5008634E+01  -1.8560213E+00   4.4534354E+00
  -1.5529143E+01  -1.9526384E+00   4.5039067E+00
  -1.6071352E+01  -2.0592926E+00   4.5459595E+00
  -1.6636744E+01  -2.1772134E+00   4.5781279E+00
  -1.7226845E+01  -2.3077731E+00   4.5987663E+00
  -1.7843210E+01  -2.4525025E+00   4.6060438E+00
  -1.8487381E+01  -2.6131096E+00   4.5979424E+00
  -1.9160870E+01  -2.7915032E+00   4.5722604E+00
  -1.9865122E+01  -2.9898214E+00   4.5266161E+00
  -2.0601488E+01  -3.2104630E+00   4.4584565E+00
  -2.1371191E+01  -3.4561286E+00   4.3650594E+00
  -2.2175266E+01  -3.7298775E+00   4.2435479E+00
  -2.3014515E+01  -4.0351691E+00   4.0908790E+00
  -2.3889414E+01  -4.3759384E+00   3.9038546E+00
  -2.4799980E+01  -4.7566595E+00   3.6791306E+00
  -2.5745621E+01  -5.1824269E+00   3.4132600E+00
  -2.6724909E+01  -5.6590257E+00   3.1027808E+00
  -2.7735344E+01  -6.1930070E+00   2.7443576E+00
  -2.8773092E+01  -6.7917576E+00   2.3350239E+00
  -2.9832745E+01  -7.4635477E+00   1.8724712E+00
  -3.0907091E+01  -8.2175350E+00   1.3553935E+00
  -3.1986938E+01  -9.0636940E+00   7.8382671E-01
  -3.3060905E+01  -1.0012569E+01   1.5941989E-01
  -3.4115181E+01  -1.1074765E+01  -5.1436627E-01
  -3.5133053E+01  -1.2259965E+01  -1.2321317E+00
  -3.6094326E+01  -1.3575326E+01  -1.9863069E+00
  -3.6974602E+01  -1.5023029E+01  -2.7665806E+00
  -3.7744949E+01  -1.6596983E+01  -3.5586412E+00
  -3.8372688E+01  -1.8278858E+01  -4.3420615E+00
  -3.8824272E+01  -2.0034142E+01  -5.0875273E+00
  -3.9071190E+01  -2.1809359E+01  -5.7541351E+00
  -3.9098881E+01  -2.3532001E+01  -6.2881985E+00
  -3.8917477E+01  -2.5114689E+01  -6.6249647E+00
  -3.8571468E+01  -2.6464245E+01  -6.6942496E+00
  -3.8144775E+01  -2.7494938E+01  -6.4297094E+00
  -3.7581646E+01  -2.8012224E+01  -5.7502813E+00
  -7.9010427E-02  -2.1163082E-01   4.9594498E-01
  -8.1915259E-02  -2.3893929E-01   4.8951530E-01
  -7.8692198E-02  -2.6578999E-01   4.8358107E-01
  -7.0436478E-02  -2.8987694E-01   4.7906494E-01
  -5.8840752E-02  -3.0966473E-01   4.7648263E-01
  -4.5731544E-02  -3.2448387E-01   4.7591257E-01
  -3.2681465E-02  -3.3444500E-01   4.7707820E-01
  -2.0825863E-02  -3.4014606E-01   4.7952020E-01
  -1.0805607E-02  -3.4245157E-01   4.8272026E-01
  -2.8452873E-03  -3.4227610E-01   4.8622102E-01
  -9.1042519E+00  -1.0088710E+00   3.2903612E+00
  -9.4221096E+00  -1.0368197E+00   3.3734095E+00
  -9.7497644E+00  -1.0663799E+00   3.4569249E+00
  -1.0087554E+01  -1.0977448E+00   3.5406842E+00
  -1.0435871E+01  -1.1311344E+00   3.6244378E+00
  -1.0795154E+01  -1.1667981E+00   3.7079089E+00
  -1.1165906E+01  -1.2050196E+00   3.7907867E+00
  -1.1548699E+01  -1.2461195E+00   3.8727226E+00
  -1.1944185E+01  -1.2904612E+00   3.9533212E+00
  -1.2353101E+01  -1.3384546E+00   4.0321336E+00
  -1.2776276E+01  -1.3905632E+00   4.1086469E+00
  -1.3214641E+01  -1.4473089E+00   4.1822734E+00
  -1.3669234E+01  -1.5092798E+00   4.2523351E+00
  -1.4141202E+01  -1.5771379E+00   4.3180523E+00
  -1.4631804E+01  -1.6516272E+00   4.3785257E+00
  -1.5142407E+01  -1.7335829E+00   4.4327211E+00
  -1.5674482E+01  -1.8239427E+00   4.4794512E+00
  -1.6229593E+01  -1.9237581E+00   4.5173607E+00
  -1.6809383E+01  -2.0342081E+00   4.5449100E+00
  -1.7415562E+01  -2.1566148E+00   4.5603685E+00
  -1.8049875E+01  -2.2924609E+00   4.5618000E+00
  -1.8714090E+01  -2.4434123E+00   4.5470600E+00
  -1.9409975E+01  -2.6113453E+00   4.5137959E+00
  -2.0139259E+01  -2.7983768E+00   4.4594474E+00
  -2.0903624E+01  -3.0069048E+00   4.3812432E+00
  -2.1704666E+01  -3.2396555E+00   4.2762027E+00
  -2.2543861E+01  -3.4997528E+00   4.1411309E+00
  -2.3422516E+01  -3.7907701E+00   3.9725957E+00
  -2.4341681E+01  -4.1168265E+00   3.7669210E+00
  -2.5302034E+01  -4.4826784E+00   3.5201731E+00
  -2.6303730E+01  -4.8938241E+00   3.2281775E+00
  -2.7346165E+01  -5.3566279E+00   2.8865759E+00
  -2.8427748E+01  -5.8784513E+00   2.4909472E+00
  -2.9545626E+01  -6.4677935E+00   2.0369911E+00
  -3.0695398E+01  -7.1344357E+00   1.5207752E+00
  -3.1870855E+01  -7.8895636E+00   9.3900311E-01
  -3.3063652E+01  -8.7458076E+00   2.8925788E-01
  -3.4262928E+01  -9.7171364E+00  -4.2983246E-01
  -3.5454617E+01  -1.0818402E+01  -1.2184942E+00
  -3.6620461E+01  -1.2064356E+01  -2.0756953E+00
  -3.7736523E+01  -1.3467811E+01  -2.9987228E+00
  -3.8771481E+01  -1.5036665E+01  -3.9820726E+00
  -3.9685230E+01  -1.6769606E+01  -5.0151362E+00
  -4.0429024E+01  -1.8650608E+01  -6.0783701E+00
  -4.0948723E+01  -2.0643005E+01  -7.1382532E+00
  -4.1192650E+01  -2.2684540E+01  -8.1422577E+00
  -4.1124542E+01  -2.4685776E+01  -9.0159578E+00
  -4.0740005E+01  -2.6534191E+01  -9.6648445E+00
  -4.0082352E+01  -2.8105797E+01  -9.9828300E+00
  -3.9251774E+01  -2.9283470E+01  -9.8670454E+00
  -3.8402481E+01  -2.9978436E+01  -9.2359962E+00
  -3.7725609E+01  -3.0148388E+01  -8.0453348E+00
  -1.1405993E-01  -2.2558212E-01   5.0171041E-01
  -1.0857010E-01  -2.6154137E-01   4.8887777E-01
  -9.5703602E-02  -2.9310608E-01   4.7866249E-01
  -7.8279495E-02  -3.1823444E-01   4.7204018E-01
  -5.9166908E-02  -3.3622742E-01   4.6910858E-01
  -4.0713310E-02  -3.4751606E-01   4.6932006E-01
  -2.4469376E-02  -3.5318279E-01   4.7182322E-01
  -1.1188030E-02  -3.5459375E-01   4.7570705E-01
  -1.0190010E-03  -3.5305452E-01   4.8019695E-01
  -9.1539593E+00  -9.3626469E-01   3.3004458E+00
  -9.4742632E+00  -9.6173811E-01   3.3826606E+00
  -9.8045788E+00  -9.8870218E-01   3.4652338E+00
  -1.0145274E+01  -1.0173340E+00   3.5479360E+00
  -1.0496770E+01  -1.0478350E+00   3.6305137E+00
  -1.0859539E+01  -1.0804340E+00   3.7126846E+00
  -1.1234124E+01  -1.1153904E+00   3.7941332E+00
  -1.1621141E+01  -1.1529984E+00   3.8745027E+00
  -1.2021287E+01  -1.1935915E+00   3.9533911E+00
  -1.2435355E+01  -1.2375463E+00   4.0303397E+00
  -1.2864238E+01  -1.2852888E+00   4.1048236E+00
  -1.3308934E+01  -1.3373002E+00   4.1762400E+00
  -1.3770561E+01  -1.3941234E+00   4.2438927E+00
  -1.4250352E+01  -1.4563709E+00   4.3069777E+00
  -1.4749665E+01  -1.5247326E+00   4.3645654E+00
  -1.5269979E+01  -1.5999862E+00   4.4155827E+00
  -1.5812887E+01  -1.6830066E+00   4.4587955E+00
  -1.6380091E+01  -1.7747792E+00   4.4927893E+00
  -1.6973392E+01  -1.8764133E+00   4.5159554E+00
  -1.7594673E+01  -1.9891589E+00   4.5264730E+00
  -1.8245880E+01  -2.1144249E+00   4.5223022E+00
  -1.8929008E+01  -2.2538049E+00   4.5011730E+00
  -1.9646076E+01  -2.4091041E+00   4.4605813E+00
  -2.0399118E+01  -2.5823753E+00   4.3977838E+00
  -2.1190157E+01  -2.7759602E+00   4.3097892E+00
  -2.2021194E+01  -2.9925573E+00   4.1933546E+00
  -2.2894176E+01  -3.2352700E+00   4.0449524E+00
  -2.3810970E+01  -3.5077012E+00   3.8607488E+00
  -2.4773277E+01  -3.8140497E+00   3.6365619E+00
  -2.5782541E+01  -4.1592269E+00   3.3678298E+00
  -2.6839798E+01  -4.5489969E+00   3.0495925E+00
  -2.7945475E+01  -4.9901400E+00   2.6765103E+00
  -2.9099154E+01  -5.4906478E+00   2.2429338E+00
  -3.0299316E+01  -6.0599451E+00   1.7430280E+00
  -3.1543053E+01  -6.7091408E+00   1.1709248E+00
  -3.2825768E+01  -7.4512901E+00   5.2087164E-01
  -3.4140751E+01  -8.3016014E+00  -2.1269655E-01
  -3.5478550E+01  -9.2775040E+00  -1.0351813E+00
  -3.6825867E+01  -1.0398375E+01  -1.9519281E+00
  -3.8163841E+01  -1.1684641E+01  -2.9682140E+00
  -3.9465450E+01  -1.3155863E+01  -4.0887232E+00
  -4.0692356E+01  -1.4827326E+01  -5.3158302E+00
  -4.1791889E+01  -1.6704765E+01  -6.6459532E+00
  -4.2695892E+01  -1.8777174E+01  -8.0633984E+00
  -4.3323776E+01  -2.1008335E+01  -9.5320282E+00
  -4.3592384E+01  -2.3328907E+01  -1.0986412E+01
  -4.3434036E+01  -2.5632191E+01  -1.2325850E+01
  -4.2820984E+01  -2.7777382E+01  -1.3415436E+01
  -4.1790672E+01  -2.9603590E+01  -1.4098116E+01
  -4.0462158E+01  -3.0954700E+01  -1.4218040E+01
  -3.9034019E+01  -3.1710114E+01  -1.3650457E+01
  -3.7759460E+01  -3.1811798E+01  -1.2328539E+01
  -3.1231806E+01  -2.6482708E+01  -8.5931044E+00
  -1.4765596E-01  -2.6115990E-01   4.9662685E-01
  -1.2782288E-01  -3.0130005E-01   4.7758675E-01
  -1.0197830E-01  -3.3206081E-01   4.6491909E-01
  -7.4545860E-02  -3.5289097E-01   4.5865107E-01
  -4.8931122E-02  -3.6479187E-01   4.5772409E-01
  -2.7153015E-02  -3.6955643E-01   4.6058178E-01
  -9.9945068E-03  -3.6921215E-01   4.6567202E-01
   2.6159286E-03  -3.6557579E-01   4.7172880E-01
  -9.2011852E+00  -8.6112893E-01   3.3113341E+00
  -9.5237751E+00  -8.8388073E-01   3.3928413E+00
  -9.8565741E+00  -9.0798050E-01   3.4746070E+00
  -1.0199976E+01  -9.3358707E-01   3.5563982E+00
  -1.0554425E+01  -9.6088123E-01   3.6379569E+00
  -1.0920427E+01  -9.9006844E-01   3.7189956E+00
  -1.1298560E+01  -1.0213817E+00   3.7991924E+00
  -1.1689477E+01  -1.0550855E+00   3.8781855E+00
  -1.2093923E+01  -1.0914795E+00   3.9555643E+00
  -1.2512738E+01  -1.1309029E+00   4.0308609E+00
  -1.2946871E+01  -1.1737398E+00   4.1035390E+00
  -1.3397388E+01  -1.2204247E+00   4.1729808E+00
  -1.3865475E+01  -1.2714484E+00   4.2384725E+00
  -1.4352449E+01  -1.3273665E+00   4.2991848E+00
  -1.4859761E+01  -1.3888055E+00   4.3541603E+00
  -1.5388989E+01  -1.4564739E+00   4.4022889E+00
  -1.5941845E+01  -1.5311714E+00   4.4422898E+00
  -1.6520164E+01  -1.6138014E+00   4.4726930E+00
  -1.7125895E+01  -1.7053845E+00   4.4918194E+00
  -1.7761086E+01  -1.8070761E+00   4.4977665E+00
  -1.8427881E+01  -1.9201851E+00   4.4883904E+00
  -1.9128494E+01  -2.0461991E+00   4.4613008E+00
  -1.9865202E+01  -2.1868136E+00   4.4138451E+00
  -2.0640331E+01  -2.3439703E+00   4.3431025E+00
  -2.1456261E+01  -2.5198991E+00   4.2458658E+00
  -2.2315407E+01  -2.7171922E+00   4.1186271E+00
  -2.3220213E+01  -2.9388561E+00   3.9575324E+00
  -2.4173130E+01  -3.1884160E+00   3.7583385E+00
  -2.5176569E+01  -3.4700222E+00   3.5163510E+00
  -2.6232809E+01  -3.7885890E+00   3.2263589E+00
  -2.7343891E+01  -4.1499572E+00   2.8825822E+00
  -2.8511431E+01  -4.5611029E+00   2.4786365E+00
  -2.9736425E+01  -5.0303802E+00   2.0075455E+00
  -3.1019024E+01  -5.5678339E+00   1.4617659E+00
  -3.2358284E+01  -6.1855526E+00   8.3322155E-01
  -3.3751842E+01  -6.8980799E+00   1.1325979E-01
  -3.5195465E+01  -7.7228203E+00  -7.0751452E-01
  -3.6682159E+01  -8.6803370E+00  -1.6395757E+00
  -3.8200645E+01  -9.7943325E+00  -2.6949320E+00
  -3.9732796E+01  -1.1090988E+01  -3.8873830E+00
  -4.1249718E+01  -1.2597155E+01  -5.2320194E+00
  -4.2706680E+01  -1.4336720E+01  -6.7429733E+00
  -4.4037785E+01  -1.6324554E+01  -8.4282284E+00
  -4.5152588E+01  -1.8557606E+01  -1.0280501E+01
  -4.5938065E+01  -2.1003609E+01  -1.2264309E+01
  -4.6270157E+01  -2.3589420E+01  -1.4301357E+01
  -4.6037590E+01  -2.6192808E+01  -1.6258968E+01
  -4.5177338E+01  -2.8643658E+01  -1.7948845E+01
  -4.3713615E+01  -3.0739883E+01  -1.9143097E+01
  -4.1786106E+01  -3.2279747E+01  -1.9609819E+01
  -3.9650650E+01  -3.3104317E+01  -1.9161392E+01
  -3.7643990E+01  -3.3136589E+01  -1.7699347E+01
  -3.6119755E+01  -3.2400932E+01  -1.5236914E+01
  -9.6188927E+00  -8.5020485E+00  -2.8133860E+00
  -1.6706753E-01  -3.1703377E-01   4.7406101E-01
  -1.2946796E-01  -3.5286140E-01   4.5301819E-01
  -9.0968132E-02  -3.7541580E-01   4.4255924E-01
  -5.6261063E-02  -3.8658237E-01   4.4063187E-01
  -2.7828217E-02  -3.8917065E-01   4.4452286E-01
  -6.3285828E-03  -3.8598156E-01   4.5170093E-01
   8.7585449E-03  -3.7940311E-01   4.6019006E-01
  -9.2447720E+00  -7.8377527E-01   3.3225961E+00
  -9.5694437E+00  -8.0359232E-01   3.4035199E+00
  -9.9045000E+00  -8.2459533E-01   3.4846151E+00
  -1.0250353E+01  -8.4692359E-01   3.5656445E+00
  -1.0607476E+01  -8.7073535E-01   3.6463454E+00
  -1.0976399E+01  -8.9621031E-01   3.7264256E+00
  -1.1357732E+01  -9.2355275E-01   3.8055587E+00
  -1.1752164E+01  -9.5299453E-01   3.8833761E+00
  -1.2160476E+01  -9.8479831E-01   3.9594603E+00
  -1.2583557E+01  -1.0192622E+00   4.0333347E+00
  -1.3022406E+01  -1.0567238E+00   4.1044526E+00
  -1.3478145E+01  -1.0975657E+00   4.1721816E+00
  -1.3952026E+01  -1.1422209E+00   4.2357903E+00
  -1.4445441E+01  -1.1911798E+00   4.2944288E+00
  -1.4959921E+01  -1.2449975E+00   4.3471117E+00
  -1.5497142E+01  -1.3043027E+00   4.3926940E+00
  -1.6058920E+01  -1.3698070E+00   4.4298539E+00
  -1.6647213E+01  -1.4423167E+00   4.4570675E+00
  -1.7264107E+01  -1.5227460E+00   4.4725924E+00
  -1.7911812E+01  -1.6121334E+00   4.4744463E+00
  -1.8592646E+01  -1.7116607E+00   4.4603930E+00
  -1.9309036E+01  -1.8226775E+00   4.4279251E+00
  -2.0063507E+01  -1.9467301E+00   4.3742542E+00
  -2.0858675E+01  -2.0855992E+00   4.2962899E+00
  -2.1697260E+01  -2.2413437E+00   4.1906204E+00
  -2.2582088E+01  -2.4163749E+00   4.0534849E+00
  -2.3516104E+01  -2.6135101E+00   3.8807125E+00
  -2.4502352E+01  -2.8360810E+00   3.6676631E+00
  -2.5543970E+01  -3.0880473E+00   3.4091387E+00
  -2.6644123E+01  -3.3741465E+00   3.0992851E+00
  -2.7805916E+01  -3.7000742E+00   2.7314961E+00
  -2.9032274E+01  -4.0727205E+00   2.2983224E+00
  -3.0325781E+01  -4.5004606E+00   1.7914041E+00
  -3.1688532E+01  -4.9935288E+00   1.2013842E+00
  -3.3121933E+01  -5.5644708E+00   5.1777273E-01
  -3.4626453E+01  -6.2286944E+00  -2.7132893E-01
  -3.6201096E+01  -7.0050640E+00  -1.1797317E+00
  -3.7842411E+01  -7.9164553E+00  -2.2239351E+00
  -3.9542503E+01  -8.9900541E+00  -3.4240787E+00
  -4.1285610E+01  -1.0257055E+01  -4.8047180E+00
  -4.3042683E+01  -1.1751152E+01  -6.3945789E+00
  -4.4764019E+01  -1.3505011E+01  -8.2239513E+00
  -4.6370880E+01  -1.5543776E+01  -1.0317933E+01
  -4.7748749E+01  -1.7874802E+01  -1.2683788E+01
  -4.8746941E+01  -2.0473598E+01  -1.5292067E+01
  -4.9190742E+01  -2.3267967E+01  -1.8053587E+01
  -4.8911686E+01  -2.6124847E+01  -2.0799076E+01
  -4.7796612E+01  -2.8847862E+01  -2.3272621E+01
  -4.5846062E+01  -3.1193859E+01  -2.5151306E+01
  -4.3220501E+01  -3.2912800E+01  -2.6097479E+01
  -4.0247166E+01  -3.3803875E+01  -2.5834385E+01
  -3.7371418E+01  -3.3769047E+01  -2.4219120E+01
  -3.5062576E+01  -3.2840508E+01  -2.1280069E+01
  -3.3710133E+01  -3.1168777E+01  -1.7200296E+01
  -2.1255684E-01  -3.4294510E-01   4.6496773E-01
  -1.5927124E-01  -3.8188171E-01   4.3330383E-01
  -1.0672855E-01  -4.0398598E-01   4.1829109E-01
  -6.1099052E-02  -4.1244698E-01   4.1612720E-01
  -2.5186539E-02  -4.1120243E-01   4.2232895E-01
   8.0680847E-04  -4.0397549E-01   4.3292952E-01
   1.8099785E-02  -3.9363909E-01   4.4504666E-01
  -9.2836275E+00  -7.0448619E-01   3.3336527E+00
  -9.6101322E+00  -7.2118783E-01   3.4141126E+00
  -9.9471722E+00  -7.3889762E-01   3.4946687E+00
  -1.0295178E+01  -7.5773352E-01   3.5750809E+00
  -1.0654644E+01  -7.7782965E-01   3.6550827E+00
  -1.1026126E+01  -7.9933840E-01   3.7343779E+00
  -1.1410255E+01  -8.2243305E-01   3.8126349E+00
  -1.1807756E+01  -8.4731019E-01   3.8894799E+00
  -1.2219443E+01  -8.7419313E-01   3.9644897E+00
  -1.2646243E+01  -9.0333498E-01   4.0371790E+00
  -1.3089199E+01  -9.3502331E-01   4.1069918E+00
  -1.3549484E+01  -9.6958387E-01   4.1732831E+00
  -1.4028409E+01  -1.0073862E+00   4.2353063E+00
  -1.4527427E+01  -1.0488496E+00   4.2921929E+00
  -1.5048145E+01  -1.0944493E+00   4.3429313E+00
  -1.5592320E+01  -1.1447246E+00   4.3863478E+00
  -1.6161867E+01  -1.2002876E+00   4.4210806E+00
  -1.6758846E+01  -1.2618335E+00   4.4455605E+00
  -1.7385473E+01  -1.3301532E+00   4.4579873E+00
  -1.8044096E+01  -1.4061477E+00   4.4563088E+00
  -1.8737204E+01  -1.4908464E+00   4.4382033E+00
  -1.9467407E+01  -1.5854292E+00   4.4010625E+00
  -2.0237463E+01  -1.6912550E+00   4.3419704E+00
  -2.1050257E+01  -1.8098965E+00   4.2576861E+00
  -2.1908825E+01  -1.9431813E+00   4.1446109E+00
  -2.2816393E+01  -2.0932648E+00   3.9987488E+00
  -2.3776373E+01  -2.2626810E+00   3.8156390E+00
  -2.4792393E+01  -2.4544487E+00   3.5902708E+00
  -2.5868296E+01  -2.6721857E+00   3.3169703E+00
  -2.7008131E+01  -2.9202578E+00   2.9892740E+00
  -2.8216084E+01  -3.2039676E+00   2.5997784E+00
  -2.9496420E+01  -3.5298009E+00   2.1399980E+00
  -3.0853409E+01  -3.9057431E+00   1.6002004E+00
  -3.2291237E+01  -4.3416872E+00   9.6919203E-01
  -3.3813934E+01  -4.8499584E+00   2.3398817E-01
  -3.5425182E+01  -5.4459567E+00  -6.2074924E-01
  -3.7127876E+01  -6.1489115E+00  -1.6136210E+00
  -3.8923004E+01  -6.9826617E+00  -2.7678201E+00
  -4.0807320E+01  -7.9762716E+00  -4.1127772E+00
  -4.2769112E+01  -9.1641579E+00  -5.6856742E+00
  -4.4781189E+01  -1.0585039E+01  -7.5317788E+00
  -4.6791000E+01  -1.2278852E+01  -9.7018251E+00
  -4.8708477E+01  -1.4280323E+01  -1.2243839E+01
  -5.0394955E+01  -1.6608028E+01  -1.5186798E+01
  -5.1658669E+01  -1.9248314E+01  -1.8514370E+01
  -5.2266090E+01  -2.2135559E+01  -2.2131020E+01
  -5.1978226E+01  -2.5133831E+01  -2.5828716E+01
  -5.0615738E+01  -2.8029457E+01  -2.9270779E+01
  -4.8142605E+01  -3.0546469E+01  -3.2013680E+01
  -4.4737877E+01  -3.2392330E+01  -3.3580147E+01
  -4.0813473E+01  -3.3327515E+01  -3.3573200E+01
  -3.6949379E+01  -3.3234196E+01  -3.1789864E+01
  -3.3759117E+01  -3.2152428E+01  -2.8280931E+01
  -3.1740627E+01  -3.0264538E+01  -2.3324551E+01
  -2.2530388E+01  -2.0157816E+01  -1.2357618E+01
  -1.8854618E-01  -4.1896248E-01   4.0199089E-01
  -1.1929035E-01  -4.3737984E-01   3.8312817E-01
  -6.1447144E-02  -4.4062138E-01   3.8243484E-01
  -1.7785072E-02  -4.3384743E-01   3.9292622E-01
   1.2309074E-02  -4.2150497E-01   4.0880108E-01
   3.1168938E-02  -4.0686512E-01   4.2604303E-01
  -9.3167791E+00  -6.2353706E-01   3.3438802E+00
  -9.6448298E+00  -6.3697469E-01   3.4239845E+00
  -9.9835415E+00  -6.5122962E-01   3.5041242E+00
  -1.0333362E+01  -6.6639733E-01   3.5840557E+00
  -1.0694798E+01  -6.8258649E-01   3.6635094E+00
  -1.1068428E+01  -6.9992065E-01   3.7421851E+00
  -1.1454907E+01  -7.1854025E-01   3.8197482E+00
  -1.1854982E+01  -7.3860466E-01   3.8958201E+00
  -1.2269497E+01  -7.6029521E-01   3.9699717E+00
  -1.2699412E+01  -7.8381771E-01   4.0417123E+00
  -1.3145807E+01  -8.0940568E-01   4.1104760E+00
  -1.3609899E+01  -8.3732456E-01   4.1756091E+00
  -1.4093041E+01  -8.6787552E-01   4.2363505E+00
  -1.4596747E+01  -9.0140074E-01   4.2918158E+00
  -1.5122684E+01  -9.3828899E-01   4.3409729E+00
  -1.5672678E+01  -9.7898191E-01   4.3826208E+00
  -1.6248726E+01  -1.0239818E+00   4.4153671E+00
  -1.6852983E+01  -1.0738608E+00   4.4376030E+00
  -1.7487762E+01  -1.1292707E+00   4.4474778E+00
  -1.8155546E+01  -1.1909568E+00   4.4428811E+00
  -1.8858957E+01  -1.2597734E+00   4.4214182E+00
  -1.9600782E+01  -1.3367025E+00   4.3803916E+00
  -2.0383972E+01  -1.4228798E+00   4.3167801E+00
  -2.1211647E+01  -1.5196255E+00   4.2272091E+00
  -2.2087143E+01  -1.6284804E+00   4.1079178E+00
  -2.3014025E+01  -1.7512732E+00   3.9547081E+00
  -2.3996134E+01  -1.8901629E+00   3.7628603E+00
  -2.5037636E+01  -2.0477405E+00   3.5270357E+00
  -2.6143030E+01  -2.2271292E+00   3.2411385E+00
  -2.7317183E+01  -2.4321284E+00   2.8981516E+00
  -2.8565308E+01  -2.6673918E+00   2.4899507E+00
  -2.9892967E+01  -2.9386637E+00   2.0070913E+00
  -3.1306078E+01  -3.2530916E+00   1.4385564E+00