# vtk DataFile Version 3.0
T01 + IGRF magnetic field in GSW coordinates
ASCII
DATASET STRUCTURED_GRID
DIMENSIONS     61    21    21
POINTS    26901 float
     -50.000000     -10.000000     -10.000000
     -49.000000     -10.000000     -10.000000
     -48.000000     -10.000000     -10.000000
     -47.000000     -10.000000     -10.000000
     -46.000000     -10.000000     -10.000000
     -45.000000     -10.000000     -10.000000
     -44.000000     -10.000000     -10.000000
     -43.000000     -10.000000     -10.000000
     -42.000000     -10.000000     -10.000000
     -41.000000     -10.000000     -10.000000
     -40.000000     -10.000000     -10.000000
     -39.000000     -10.000000     -10.000000
     -38.000000     -10.000000     -10.000000
     -37.000000     -10.000000     -10.000000
     -36.000000     -10.000000     -10.000000
     -35.000000     -10.000000     -10.000000
     -34.000000     -10.000000     -10.000000
     -33.000000     -10.000000     -10.000000
     -32.000000     -10.000000     -10.000000
     -31.000000     -10.000000     -10.000000
     -30.000000     -10.000000     -10.000000
     -29.000000     -10.000000     -10.000000
     -28.000000     -10.000000     -10.000000
     -27.000000     -10.000000     -10.000000
     -26.000000     -10.000000     -10.000000
     -25.000000     -10.000000     -10.000000
     -24.000000     -10.000000     -10.000000
     -23.000000     -10.000000     -10.000000
     -22.000000     -10.000000     -10.000000
     -21.000000     -10.000000     -10.000000
     -20.000000     -10.000000     -10.000000
     -19.000000     -10.000000     -10.000000
     -18.000000     -10.000000     -10.000000
     -17.000000     -10.000000     -10.000000
     -16.000000     -10.000000     -10.000000
     -15.000000     -10.000000     -10.000000
     -14.000000     -10.000000     -10.000000
     -13.000000     -10.000000     -10.000000
     -12.000000     -10.000000     -10.000000
     -11.000000     -10.000000     -10.000000
     -10.000000     -10.000000     -10.000000
      -9.000000     -10.000000     -10.000000
      -8.000000     -10.000000     -10.000000
      -7.000000     -10.000000     -10.000000
      -6.000000     -10.000000     -10.000000
      -5.000000     -10.000000     -10.000000
      -4.000000     -10.000000     -10.000000
      -3.000000     -10.000000     -10.000000
      -2.000000     -10.000000     -10.000000
      -1.000000     -10.000000     -10.000000
       0.000000     -10.000000     -10.000000
       1.000000     -10.000000     -10.000000
       2.000000     -10.000000     -10.000000
       3.000000     -10.000000     -10.000000
       4.000000     -10.000000     -10.000000
       5.000000     -10.000000     -10.000000
       6.000000     -10.000000     -10.000000
       7.000000     -10.000000     -10.000000
       8.000000     -10.000000     -10.000000
       9.000000     -10.000000     -10.000000
      10.000000     -10.000000     -10.000000
     -50.000000      -9.000000     -10.000000
     -49.000000      -9.000000     -10.000000
     -48.000000      -9.000000     -10.000000
     -47.000000      -9.000000     -10.000000
     -46.000000      -9.000000     -10.000000
     -45.000000      -9.000000     -10.000000
     -44.000000      -9.000000     -10.000000
     -43.000000      -9.000000     -10.000000
     -42.000000      -9.000000     -10.000000
     -41.000000      -9.000000     -10.000000
     -40.000000      -9.000000     -10.000000
     -39.000000      -9.000000     -10.000000
     -38.000000      -9.000000     -10.000000
     -37.000000      -9.000000     -10.000000
     -36.000000      -9.000000     -10.000000
     -35.000000      -9.000000     -10.000000
     -34.000000      -9.000000     -10.000000
     -33.000000      -9.000000     -10.000000
     -32.000000      -9.000000     -10.000000
     -31.000000      -9.000000     -10.000000
     -30.000000      -9.000000     -10.000000
     -29.000000      -9.000000     -10.000000
     -28.000000      -9.000000     -10.000000
     -27.000000      -9.000000     -10.000000
     -26.000000      -9.000000     -10.000000
     -25.000000      -9.000000     -10.000000
     -24.000000      -9.000000     -10.000000
     -23.000000      -9.000000     -10.000000
     -22.000000      -9.000000     -10.000000
     -21.000000      -9.000000     -10.000000
     -20.000000      -9.000000     -10.000000
     -19.000000      -9.000000     -10.000000
     -18.000000      -9.000000     -10.000000
     -17.000000      -9.000000     -10.000000
     -16.000000      -9.000000     -10.000000
     -15.000000      -9.000000     -10.000000
     -14.000000      -9.000000     -10.000000
     -13.000000      -9.000000     -10.000000
     -12.000000      -9.000000     -10.000000
     -11.000000      -9.000000     -10.000000
     -10.000000      -9.000000     -10.000000
      -9.000000      -9.000000     -10.000000
      -8.000000      -9.000000     -10.000000
      -7.000000      -9.000000     -10.000000
      -6.000000      -9.000000     -10.000000
      -5.000000      -9.000000     -10.000000
      -4.000000      -9.000000     -10.000000
      -3.000000      -9.000000     -10.000000
      -2.000000      -9.000000     -10.000000
      -1.000000      -9.000000     -10.000000
       0.000000      -9.000000     -10.000000
       1.000000      -9.000000     -10.000000
       2.000000      -9.000000     -10.000000
       3.000000      -9.000000     -10.000000
       4.000000      -9.000000     -10.000000
       5.000000      -9.000000     -10.000000
       6.000000      -9.000000     -10.000000
       7.000000      -9.000000     -10.000000
       8.000000      -9.000000     -10.000000
       9.000000      -9.000000     -10.000000
      10.000000      -9.000000     -10.000000
     -50.000000      -8.000000     -10.000000
     -49.000000      -8.000000     -10.000000
     -48.000000      -8.000000     -10.000000
     -47.000000      -8.000000     -10.000000
     -46.000000      -8.000000     -10.000000
     -45.000000      -8.000000     -10.000000
     -44.000000      -8.000000     -10.000000
     -43.000000      -8.000000     -10.000000
     -42.000000      -8.000000     -10.000000
     -41.000000      -8.000000     -10.000000
     -40.000000      -8.000000     -10.000000
     -39.000000      -8.000000     -10.000000
     -38.000000      -8.000000     -10.000000
     -37.000000      -8.000000     -10.000000
     -36.000000      -8.000000     -10.000000
     -35.000000      -8.000000     -10.000000
     -34.000000      -8.000000     -10.000000
     -33.000000      -8.000000     -10.000000
     -32.000000      -8.000000     -10.000000
     -31.000000      -8.000000     -10.000000
     -30.000000      -8.000000     -10.000000
     -29.000000      -8.000000     -10.000000
     -28.000000      -8.000000     -10.000000
     -27.000000      -8.000000     -10.000000
     -26.000000      -8.000000     -10.000000
     -25.000000      -8.000000     -10.000000
     -24.000000      -8.000000     -10.000000
     -23.000000      -8.000000     -10.000000
     -22.000000      -8.000000     -10.000000
     -21.000000      -8.000000     -10.000000
     -20.000000      -8.000000     -10.000000
     -19.000000      -8.000000     -10.000000
     -18.000000      -8.000000     -10.000000
     -17.000000      -8.000000     -10.000000
     -16.000000      -8.000000     -10.000000
     -15.000000      -8.000000     -10.000000
     -14.000000      -8.000000     -10.000000
     -13.000000      -8.000000     -10.000000
     -12.000000      -8.000000     -10.000000
     -11.000000      -8.000000     -10.000000
     -10.000000      -8.000000     -10.000000
      -9.000000      -8.000000     -10.000000
      -8.000000      -8.000000     -10.000000
      -7.000000      -8.000000     -10.000000
      -6.000000      -8.000000     -10.000000
      -5.000000      -8.000000     -10.000000
      -4.000000      -8.000000     -10.000000
      -3.000000      -8.000000     -10.000000
      -2.000000      -8.000000     -10.000000
      -1.000000      -8.000000     -10.000000
       0.000000      -8.000000     -10.000000
       1.000000      -8.000000     -10.000000
       2.000000      -8.000000     -10.000000
       3.000000      -8.000000     -10.000000
       4.000000      -8.000000     -10.000000
       5.000000      -8.000000     -10.000000
       6.000000      -8.000000     -10.000000
       7.000000      -8.000000     -10.000000
       8.000000      -8.000000     -10.000000
       9.000000      -8.000000     -10.000000
      10.000000      -8.000000     -10.000000
     -50.000000      -7.000000     -10.000000
     -49.000000      -7.000000     -10.000000
     -48.000000      -7.000000     -10.000000
     -47.000000      -7.000000     -10.000000
     -46.000000      -7.000000     -10.000000
     -45.000000      -7.000000     -10.000000
     -44.000000      -7.000000     -10.000000
     -43.000000      -7.000000     -10.000000
     -42.000000      -7.000000     -10.000000
     -41.000000      -7.000000     -10.000000
     -40.000000      -7.000000     -10.000000
     -39.000000      -7.000000     -10.000000
     -38.000000      -7.000000     -10.000000
     -37.000000      -7.000000     -10.000000
     -36.000000      -7.000000     -10.000000
     -35.000000      -7.000000     -10.000000
     -34.000000      -7.000000     -10.000000
     -33.000000      -7.000000     -10.000000
     -32.000000      -7.000000     -10.000000
     -31.000000      -7.000000     -10.000000
     -30.000000      -7.000000     -10.000000
     -29.000000      -7.000000     -10.000000
     -28.000000      -7.000000     -10.000000
     -27.000000      -7.000000     -10.000000
     -26.000000      -7.000000     -10.000000
     -25.000000      -7.000000     -10.000000
[...]
POINT_DATA    26901
VECTORS B_total float
  -9.1686707E+00  -1.1333811E+00   3.2714953E+00
  -9.4865265E+00  -1.1649010E+00   3.3558550E+00
  -9.8138847E+00  -1.1981020E+00   3.4408052E+00
  -1.0151049E+01  -1.2331868E+00   3.5261166E+00
  -1.0498361E+01  -1.2703872E+00   3.6115329E+00
  -1.0856215E+01  -1.3099666E+00   3.6967669E+00
  -1.1225061E+01  -1.3522243E+00   3.7814970E+00
  -1.1605414E+01  -1.3974996E+00   3.8653603E+00
  -1.1997856E+01  -1.4461761E+00   3.9479477E+00
  -1.2403052E+01  -1.4986875E+00   4.0287948E+00
  -1.2821751E+01  -1.5555227E+00   4.1073718E+00
  -1.3254791E+01  -1.6172316E+00   4.1830750E+00
  -1.3703112E+01  -1.6844326E+00   4.2552123E+00
  -1.4167746E+01  -1.7578201E+00   4.3229918E+00
  -1.4649828E+01  -1.8381717E+00   4.3855057E+00
  -1.5150585E+01  -1.9263580E+00   4.4417176E+00
  -1.5671337E+01  -2.0233524E+00   4.4904461E+00
  -1.6213474E+01  -2.1302419E+00   4.5303516E+00
  -1.6778454E+01  -2.2482405E+00   4.5599256E+00
  -1.7367777E+01  -2.3787026E+00   4.5774822E+00
  -1.7982962E+01  -2.5231411E+00   4.5811491E+00
  -1.8625519E+01  -2.6832452E+00   4.5688715E+00
  -1.9296926E+01  -2.8609078E+00   4.5384145E+00
  -1.9998602E+01  -3.0582519E+00   4.4873657E+00
  -2.0731855E+01  -3.2776663E+00   4.4131455E+00
  -2.1497875E+01  -3.5218511E+00   4.3130121E+00
  -2.2297644E+01  -3.7938588E+00   4.1840787E+00
  -2.3131905E+01  -4.0971637E+00   4.0232964E+00
  -2.4001066E+01  -4.4357228E+00   3.8274813E+00
  -2.4905048E+01  -4.8140454E+00   3.5933216E+00
  -2.5843145E+01  -5.2372761E+00   3.3174334E+00
  -2.6813782E+01  -5.7112684E+00   2.9964557E+00
  -2.7814270E+01  -6.2426634E+00   2.6272080E+00
  -2.8840559E+01  -6.8389645E+00   2.2069397E+00
  -2.9886959E+01  -7.5085716E+00   1.7336382E+00
  -3.0945911E+01  -8.2607918E+00   1.2063888E+00
  -3.2007797E+01  -9.1057348E+00   6.2573558E-01
  -3.3060707E+01  -1.0054026E+01  -6.0130358E-03
  -3.4090179E+01  -1.1116234E+01  -6.8453968E-01
  -3.5078785E+01  -1.2301803E+01  -1.4033351E+00
  -3.6005577E+01  -1.3617334E+01  -2.1534038E+00
  -3.6845531E+01  -1.5064041E+01  -2.9226313E+00
  -3.7569389E+01  -1.6634340E+01  -3.6945016E+00
  -3.8144707E+01  -1.8307888E+01  -4.4460177E+00
  -3.8539009E+01  -2.0047672E+01  -5.1450191E+00
  -3.8725956E+01  -2.1797468E+01  -5.7477417E+00
  -3.8694305E+01  -2.3481997E+01  -6.1978941E+00
  -3.8458618E+01  -2.5011543E+01  -6.4287920E+00
  -3.8068527E+01  -2.6291290E+01  -6.3693600E+00
  -3.7613304E+01  -2.7234741E+01  -5.9535947E+00
  -2.3231771E+01  -1.7426771E+01  -3.0222759E+00
  -8.0049336E-02  -3.1702137E-01   4.6230412E-01
  -7.5457335E-02  -3.4228039E-01   4.5590734E-01
  -6.5271139E-02  -3.6439896E-01   4.5109463E-01
  -5.1148415E-02  -3.8161469E-01   4.4862223E-01
  -3.5134315E-02  -3.9305687E-01   4.4875598E-01
  -1.9155502E-02  -3.9877701E-01   4.5126987E-01
  -4.6806335E-03  -3.9952278E-01   4.5562267E-01
   7.3828697E-03  -3.9636898E-01   4.6114194E-01
   1.6687393E-02  -3.9051199E-01   4.6717095E-01
   2.3285389E-02  -3.8302374E-01   4.7318548E-01
  -9.2168608E+00  -1.0583055E+00   3.2761047E+00
  -9.5370731E+00  -1.0874537E+00   3.3593607E+00
  -9.8670130E+00  -1.1181853E+00   3.4430871E+00
  -1.0207010E+01  -1.1506896E+00   3.5270495E+00
  -1.0557442E+01  -1.1851822E+00   3.6109877E+00
  -1.0918738E+01  -1.2219088E+00   3.6946099E+00
  -1.1291389E+01  -1.2611485E+00   3.7775896E+00
  -1.1675955E+01  -1.3032178E+00   3.8595586E+00
  -1.2073071E+01  -1.3484746E+00   3.9401004E+00
  -1.2483457E+01  -1.3973244E+00   4.0187430E+00
  -1.2907928E+01  -1.4502244E+00   4.0949459E+00
  -1.3347396E+01  -1.5076904E+00   4.1680918E+00
  -1.3802877E+01  -1.5703033E+00   4.2374721E+00
  -1.4275497E+01  -1.6387165E+00   4.3022723E+00
  -1.4766489E+01  -1.7136643E+00   4.3615575E+00
  -1.5277193E+01  -1.7959712E+00   4.4142551E+00
  -1.5809049E+01  -1.8865621E+00   4.4591408E+00
  -1.6363588E+01  -1.9864750E+00   4.4948201E+00
  -1.6942423E+01  -2.0968730E+00   4.5197182E+00
  -1.7547226E+01  -2.2190619E+00   4.5320649E+00
  -1.8179705E+01  -2.3545079E+00   4.5298929E+00
  -1.8841593E+01  -2.5048604E+00   4.5110264E+00
  -1.9534620E+01  -2.6719799E+00   4.4730859E+00
  -2.0260479E+01  -2.8579710E+00   4.4134846E+00
  -2.1020815E+01  -3.0652254E+00   4.3294334E+00
  -2.1817184E+01  -3.2964716E+00   4.2179308E+00
  -2.2651011E+01  -3.5548301E+00   4.0757751E+00
  -2.3523544E+01  -3.8438969E+00   3.8995275E+00
  -2.4435770E+01  -4.1678214E+00   3.6855183E+00
  -2.5388279E+01  -4.5314050E+00   3.4298387E+00
  -2.6381107E+01  -4.9402142E+00   3.1283617E+00
  -2.7413523E+01  -5.4007049E+00   2.7768121E+00
  -2.8483770E+01  -5.9203606E+00   2.3708889E+00
  -2.9588793E+01  -6.5078397E+00   1.9064653E+00
  -3.0723942E+01  -7.1731176E+00   1.3798338E+00
  -3.1882687E+01  -7.9275999E+00   7.8798950E-01
  -3.3056263E+01  -8.7841492E+00   1.2888604E-01
  -3.4233231E+01  -9.7569160E+00  -5.9836209E-01
  -3.5398781E+01  -1.0860824E+01  -1.3933275E+00
  -3.6533707E+01  -1.2110468E+01  -2.2540567E+00
  -3.7613003E+01  -1.3518158E+01  -3.1765566E+00
  -3.8604237E+01  -1.5090773E+01  -4.1535492E+00
  -3.9466457E+01  -1.6825369E+01  -5.1720495E+00
  -4.0150604E+01  -1.8703606E+01  -6.2095037E+00
  -4.0603195E+01  -2.0685852E+01  -7.2288361E+00
  -4.0774570E+01  -2.2706511E+01  -8.1736841E+00
  -4.0632053E+01  -2.4672745E+01  -8.9658947E+00
  -4.0176369E+01  -2.6469120E+01  -9.5079546E+00
  -3.9457039E+01  -2.7969788E+01  -9.6921101E+00
  -3.8580791E+01  -2.9057129E+01  -9.4156046E+00
  -3.7707550E+01  -2.9643267E+01  -8.5989790E+00
  -2.6477335E+01  -2.1289707E+01  -5.0135841E+00
  -1.0354328E-01  -3.4570312E-01   4.3896341E-01
  -8.8281631E-02  -3.7533379E-01   4.2925549E-01
  -6.7524433E-02  -3.9784336E-01   4.2387533E-01
  -4.4525623E-02  -4.1220379E-01   4.2314339E-01
  -2.2192478E-02  -4.1872311E-01   4.2653751E-01
  -2.6054382E-03  -4.1864681E-01   4.3300796E-01
   1.3119698E-02  -4.1365051E-01   4.4133925E-01
   2.4709225E-02  -4.0544701E-01   4.5041740E-01
   3.2457829E-02  -3.9550495E-01   4.5938569E-01
  -9.2626038E+00  -9.7996294E-01   3.2812595E+00
  -9.5850430E+00  -1.0064706E+00   3.3635356E+00
  -9.9174128E+00  -1.0344410E+00   3.4461722E+00
  -1.0260077E+01  -1.0640478E+00   3.5289314E+00
  -1.0613437E+01  -1.0954887E+00   3.6115479E+00
  -1.0977958E+01  -1.1289890E+00   3.6937258E+00
  -1.1354170E+01  -1.1648043E+00   3.7751336E+00
  -1.1742673E+01  -1.2032254E+00   3.8553975E+00
  -1.2144152E+01  -1.2445809E+00   3.9340942E+00
  -1.2559380E+01  -1.2892435E+00   4.0107427E+00
  -1.2989231E+01  -1.3376341E+00   4.0847931E+00
  -1.3434686E+01  -1.3902282E+00   4.1556134E+00
  -1.3896837E+01  -1.4475627E+00   4.2224784E+00
  -1.4376895E+01  -1.5102421E+00   4.2845516E+00
  -1.4876186E+01  -1.5789483E+00   4.3408704E+00
  -1.5396158E+01  -1.6544487E+00   4.3903279E+00
  -1.5938373E+01  -1.7376075E+00   4.4316549E+00
  -1.6504494E+01  -1.8293971E+00   4.4634047E+00
  -1.7096285E+01  -1.9309131E+00   4.4839339E+00
  -1.7715584E+01  -2.0433905E+00   4.4913950E+00
  -1.8364302E+01  -2.1682239E+00   4.4837193E+00
  -1.9044390E+01  -2.3069918E+00   4.4586139E+00
  -1.9757826E+01  -2.4614863E+00   4.4135532E+00
  -2.0506607E+01  -2.6337516E+00   4.3457785E+00
  -2.1292719E+01  -2.8261285E+00   4.2522812E+00
  -2.2118111E+01  -3.0413089E+00   4.1298079E+00
  -2.2984697E+01  -3.2824113E+00   3.9748216E+00
  -2.3894281E+01  -3.5530612E+00   3.7834802E+00
  -2.4848501E+01  -3.8574941E+00   3.5516064E+00
  -2.5848721E+01  -4.2006788E+00   3.2746530E+00
  -2.6895876E+01  -4.5884595E+00   2.9476914E+00
  -2.7990274E+01  -5.0277295E+00   2.5654421E+00
  -2.9131367E+01  -5.5266314E+00   2.1223414E+00
  -3.0317463E+01  -6.0947866E+00   1.6126680E+00
  -3.1545452E+01  -6.7435575E+00   1.0306948E+00
  -3.2810448E+01  -7.4862890E+00   3.7082928E-01
  -3.4105331E+01  -8.3385067E+00  -3.7229431E-01
  -3.5420048E+01  -9.3179340E+00  -1.2038131E+00
  -3.6740437E+01  -1.0444129E+01  -2.1286764E+00
  -3.8046452E+01  -1.1737478E+01  -3.1515036E+00
  -3.9309620E+01  -1.3217108E+01  -4.2759032E+00
  -4.0489967E+01  -1.4897310E+01  -5.5025454E+00
  -4.1533298E+01  -1.6782085E+01  -6.8253117E+00
  -4.2370472E+01  -1.8857861E+01  -8.2250242E+00
  -4.2920990E+01  -2.1085041E+01  -9.6611538E+00
  -4.3103439E+01  -2.3390282E+01  -1.1063199E+01
  -4.2853958E+01  -2.5662790E+01  -1.2325309E+01
  -4.2150753E+01  -2.7758131E+01  -1.3308090E+01
  -4.1038956E+01  -2.9513128E+01  -1.3851714E+01
  -3.9645920E+01  -3.0771282E+01  -1.3800088E+01
  -3.8177528E+01  -3.1413746E+01  -1.3031180E+01
  -3.6891670E+01  -3.1385847E+01  -1.1483400E+01
  -1.8098969E+01  -1.5529032E+01  -4.3752298E+00
  -1.1853361E-01  -3.8619614E-01   4.0013790E-01
  -8.8379860E-02  -4.1515923E-01   3.9017773E-01
  -5.5749893E-02  -4.3284035E-01   3.8816929E-01
  -2.4966240E-02  -4.4001007E-01   3.9299202E-01
   1.1396408E-03  -4.3868637E-01   4.0269184E-01
   2.1284103E-02  -4.3134594E-01   4.1516519E-01
   3.5408020E-02  -4.2034149E-01   4.2860675E-01
   4.4207573E-02  -4.0758848E-01   4.4169688E-01
  -9.3051395E+00  -8.9883685E-01   3.2869310E+00
  -9.6296329E+00  -9.2246801E-01   3.3683574E+00
  -9.9642477E+00  -9.4742084E-01   3.4500463E+00
  -1.0309365E+01  -9.7385132E-01   3.5317554E+00
  -1.0665419E+01  -1.0019373E+00   3.6132159E+00
  -1.1032904E+01  -1.0318810E+00   3.6941278E+00
  -1.1412381E+01  -1.0639126E+00   3.7741542E+00
  -1.1804492E+01  -1.0982932E+00   3.8529165E+00
  -1.2209965E+01  -1.1353189E+00   3.9299846E+00
  -1.2629622E+01  -1.1753258E+00   4.0048685E+00
  -1.3064392E+01  -1.2186933E+00   4.0770087E+00
  -1.3515318E+01  -1.2658514E+00   4.1457605E+00
  -1.3983564E+01  -1.3172858E+00   4.2103815E+00
  -1.4470416E+01  -1.3735454E+00   4.2700143E+00
  -1.4977294E+01  -1.4352500E+00   4.3236694E+00
  -1.5505743E+01  -1.5030991E+00   4.3702068E+00
  -1.6057436E+01  -1.5778828E+00   4.4083157E+00
  -1.6634167E+01  -1.6604935E+00   4.4364967E+00
  -1.7237841E+01  -1.7519403E+00   4.4530439E+00
  -1.7870468E+01  -1.8533657E+00   4.4560323E+00
  -1.8534138E+01  -1.9660658E+00   4.4432974E+00
  -1.9231022E+01  -2.0915160E+00   4.4124327E+00
  -1.9963356E+01  -2.2314019E+00   4.3607731E+00
  -2.0733427E+01  -2.3876579E+00   4.2853880E+00
  -2.1543575E+01  -2.5625172E+00   4.1830587E+00
  -2.2396166E+01  -2.7585678E+00   4.0502744E+00
  -2.3293606E+01  -2.9788351E+00   3.8831687E+00
  -2.4238293E+01  -3.2268705E+00   3.6774945E+00
  -2.5232578E+01  -3.5068674E+00   3.4285550E+00
  -2.6278675E+01  -3.8238027E+00   3.1311455E+00
  -2.7378536E+01  -4.1836100E+00   2.7795022E+00
  -2.8533682E+01  -4.5933895E+00   2.3672752E+00
  -2.9745010E+01  -5.0616708E+00   1.8875302E+00
  -3.1012547E+01  -5.5987244E+00   1.3327727E+00
  -3.2335190E+01  -6.2169323E+00   6.9496131E-01
  -3.3710354E+01  -6.9311905E+00  -3.4541965E-02
  -3.5133408E+01  -7.7592964E+00  -8.6514241E-01
  -3.6596737E+01  -8.7221947E+00  -1.8073201E+00
  -3.8088093E+01  -9.8438845E+00  -2.8729966E+00
  -3.9587925E+01  -1.1150623E+01  -4.0756512E+00
  -4.1065468E+01  -1.2668930E+01  -5.4295707E+00
  -4.2473766E+01  -1.4421770E+01  -6.9473310E+00
  -4.3744648E+01  -1.6422256E+01  -8.6342583E+00
  -4.4785854E+01  -1.8664616E+01  -1.0479109E+01
  -4.5483700E+01  -2.1112843E+01  -1.2441032E+01
  -4.5715412E+01  -2.3689257E+01  -1.4435246E+01
  -4.5373661E+01  -2.6266766E+01  -1.6322039E+01
  -4.4402283E+01  -2.8670870E+01  -1.7906668E+01
  -4.2834961E+01  -3.0696648E+01  -1.8956810E+01
  -4.0822067E+01  -3.2141968E+01  -1.9239643E+01
  -3.8629147E+01  -3.2850433E+01  -1.8571012E+01
  -3.6599098E+01  -3.2749954E+01  -1.6860014E+01
  -3.5086357E+01  -3.1870785E+01  -1.4129766E+01
  -1.5750742E-01  -3.9557838E-01   3.6254120E-01
  -1.1439610E-01  -4.3193817E-01   3.4573936E-01
  -6.8850517E-02  -4.5319366E-01   3.4195137E-01
  -2.7125359E-02  -4.6081448E-01   3.4898567E-01
   7.0323944E-03  -4.5784855E-01   3.6341476E-01
   3.2311440E-02  -4.4777870E-01   3.8176346E-01
   4.9088478E-02  -4.3370056E-01   4.0121627E-01
   5.8720589E-02  -4.1801691E-01   4.1983509E-01
  -9.3437090E+00  -8.1534761E-01   3.2929184E+00
  -9.6700544E+00  -8.3589882E-01   3.3736267E+00
  -1.0006687E+01  -8.5761267E-01   3.4545114E+00
  -1.0354011E+01  -8.8062590E-01   3.5353270E+00
  -1.0712481E+01  -9.0509433E-01   3.6158013E+00
  -1.1082622E+01  -9.3119526E-01   3.6956298E+00
  -1.1465023E+01  -9.5913064E-01   3.7744720E+00
  -1.1860363E+01  -9.8912954E-01   3.8519435E+00
  -1.2269405E+01  -1.0214523E+00   3.9276083E+00
  -1.2693020E+01  -1.0563937E+00   4.0009689E+00
  -1.3132184E+01  -1.0942883E+00   4.0714560E+00
  -1.3587996E+01  -1.1355149E+00   4.1384130E+00
  -1.4061683E+01  -1.1805022E+00   4.2010818E+00
  -1.4554603E+01  -1.2297355E+00   4.2585855E+00
  -1.5068255E+01  -1.2837640E+00   4.3099103E+00
  -1.5604280E+01  -1.3432093E+00   4.3538842E+00
  -1.6164450E+01  -1.4087749E+00   4.3891587E+00
  -1.6750679E+01  -1.4812580E+00   4.4141860E+00
  -1.7365005E+01  -1.5615631E+00   4.4272027E+00
  -1.8009590E+01  -1.6507183E+00   4.4262085E+00
  -1.8686708E+01  -1.7498949E+00   4.4089541E+00
  -1.9398733E+01  -1.8604327E+00   4.3729243E+00
  -2.0148144E+01  -1.9838703E+00   4.3153229E+00
  -2.0937519E+01  -2.1219842E+00   4.2330580E+00
  -2.1769537E+01  -2.2768378E+00   4.1227121E+00
  -2.2646978E+01  -2.4508417E+00   3.9805241E+00
  -2.3572746E+01  -2.6468337E+00   3.8023162E+00
  -2.4549845E+01  -2.8681731E+00   3.5834429E+00
  -2.5581354E+01  -3.1188657E+00   3.3186979E+00
  -2.6670382E+01  -3.4037139E+00   3.0022254E+00
  -2.7819971E+01  -3.7285089E+00   2.6274195E+00
  -2.9032974E+01  -4.1002736E+00   2.1868372E+00
  -3.0311920E+01  -4.5275655E+00   1.6721139E+00
  -3.1658825E+01  -5.0208602E+00   1.0738683E+00
  -3.3075005E+01  -5.5930195E+00   3.8153011E-01
  -3.4560753E+01  -6.2598343E+00  -4.1694987E-01
  -3.6114723E+01  -7.0406055E+00  -1.3356292E+00
  -3.7732838E+01  -7.9586592E+00  -2.3913107E+00
  -3.9406136E+01  -9.0415602E+00  -3.6044135E+00
  -4.1117199E+01  -1.0320674E+01  -4.9995613E+00
  -4.2834709E+01  -1.1829477E+01  -6.6050396E+00
  -4.4506115E+01  -1.3599811E+01  -8.4497948E+00
  -4.6049580E+01  -1.5655107E+01  -1.0556231E+01
  -4.7347824E+01  -1.7999947E+01  -1.2927195E+01
  -4.8248600E+01  -2.0605944E+01  -1.5526888E+01
  -4.8577812E+01  -2.3395943E+01  -1.8257952E+01
  -4.8170830E+01  -2.6231434E+01  -2.0941833E+01
  -4.6922256E+01  -2.8911003E+01  -2.3313589E+01
  -4.4844116E+01  -3.1188166E+01  -2.5043570E+01
  -4.2110542E+01  -3.2812485E+01  -2.5792025E+01
  -3.9061630E+01  -3.3586433E+01  -2.5286451E+01
  -3.6151173E+01  -3.3418343E+01  -2.3394403E+01
  -3.3849575E+01  -3.2348175E+01  -2.0158579E+01
  -3.2539413E+01  -3.0533234E+01  -1.5776278E+01
  -1.4594746E-01  -4.4558525E-01   2.8947258E-01
  -8.3719254E-02  -4.7036362E-01   2.8333759E-01
  -2.8373718E-02  -4.7818375E-01   2.9363060E-01
   1.5370369E-02  -4.7336960E-01   3.1464291E-01
   4.6352386E-02  -4.6051693E-01   3.4091091E-01
   6.5754890E-02  -4.4349766E-01   3.6823940E-01
   7.5868607E-02  -4.2516518E-01   3.9391589E-01
  -9.3776007E+00  -7.2986776E-01   3.2989149E+00
  -9.7055635E+00  -7.4716711E-01   3.3790333E+00
  -1.0043957E+01  -7.6545471E-01   3.4592550E+00
  -1.0393202E+01  -7.8484666E-01   3.5393314E+00
  -1.0753778E+01  -8.0547512E-01   3.6189876E+00
  -1.1126228E+01  -8.2749063E-01   3.6979153E+00
  -1.1511171E+01  -8.5106462E-01   3.7757707E+00
  -1.1909316E+01  -8.7639183E-01   3.8521640E+00
  -1.2321458E+01  -9.0369332E-01   3.9266546E+00
  -1.2748505E+01  -9.3322021E-01   3.9987378E+00
  -1.3191480E+01  -9.6525741E-01   4.0678353E+00
  -1.3651528E+01  -1.0001278E+00   4.1332808E+00
  -1.4129933E+01  -1.0381979E+00   4.1943007E+00
  -1.4628117E+01  -1.0798824E+00   4.2500029E+00
  -1.5147648E+01  -1.1256523E+00   4.2993498E+00
  -1.5690246E+01  -1.1760414E+00   4.3411431E+00
  -1.6257778E+01  -1.2316548E+00   4.3739982E+00
  -1.6852262E+01  -1.2931811E+00   4.3963265E+00
  -1.7475861E+01  -1.3614029E+00   4.4063101E+00
  -1.8130871E+01  -1.4372129E+00   4.4018869E+00
  -1.8819725E+01  -1.5216326E+00   4.3807259E+00
  -1.9544996E+01  -1.6158340E+00   4.3402166E+00
  -2.0309381E+01  -1.7211707E+00   4.2774444E+00
  -2.1115725E+01  -1.8392123E+00   4.1891708E+00
  -2.1967035E+01  -1.9717919E+00   4.0717959E+00
  -2.2866478E+01  -2.1210668E+00   3.9213295E+00
  -2.3817438E+01  -2.2895899E+00   3.7333050E+00
  -2.4823500E+01  -2.4804080E+00   3.5027051E+00
  -2.5888464E+01  -2.6971812E+00   3.2238450E+00
  -2.7016329E+01  -2.9443388E+00   2.8902481E+00
  -2.8211235E+01  -3.2272735E+00   2.4944983E+00
  -2.9477417E+01  -3.5525987E+00   2.0280838E+00
  -3.0819113E+01  -3.9284756E+00   1.4812226E+00
  -3.2240501E+01  -4.3650327E+00   8.4261835E-01
  -3.3745564E+01  -4.8749003E+00   9.9090695E-02
  -3.5337894E+01  -5.4738617E+00  -7.6502466E-01
  -3.7020084E+01  -6.1815844E+00  -1.7688167E+00
  -3.8792488E+01  -7.0223641E+00  -2.9361038E+00
  -4.0650726E+01  -8.0256748E+00  -4.2969804E+00
  -4.2581226E+01  -9.2261496E+00  -5.8891253E+00
  -4.4554138E+01  -1.0662367E+01  -7.7577801E+00
  -4.6513447E+01  -1.2373516E+01  -9.9526205E+00
  -4.8365204E+01  -1.4392727E+01  -1.2519035E+01
  -4.9966957E+01  -1.6735870E+01  -1.5481174E+01
  -5.1124340E+01  -1.9385387E+01  -1.8815371E+01
  -5.1603588E+01  -2.2270611E+01  -2.2416140E+01
  -5.1169285E+01  -2.5249962E+01  -2.6063591E+01
  -4.9650604E+01  -2.8104420E+01  -2.9408857E+01
  -4.7025169E+01  -3.0554539E+01  -3.1998766E+01
  -4.3489086E+01  -3.2307613E+01  -3.3352314E+01
  -3.9470970E+01  -3.3128120E+01  -3.3077457E+01
  -3.5562073E+01  -3.2905861E+01  -3.0985189E+01
  -3.2377579E+01  -3.1690063E+01  -2.7146120E+01
  -3.0406433E+01  -2.9670980E+01  -2.1858421E+01
  -1.2506448E+01  -1.1505600E+01  -6.3131008E+00
  -1.0008812E-01  -4.8024750E-01   2.1284485E-01
  -2.8568268E-02  -4.8810768E-01   2.2757530E-01
   2.6041985E-02  -4.8165607E-01   2.5716209E-01
   6.3096046E-02  -4.6655083E-01   2.9345608E-01
   8.4927559E-02  -4.4734669E-01   3.3048582E-01
   9.5078468E-02  -4.2719746E-01   3.6465859E-01
  -9.4061871E+00  -6.4273918E-01   3.3045704E+00
  -9.7355061E+00  -6.5664518E-01   3.3842211E+00
  -1.0075376E+01  -6.7135257E-01   3.4639156E+00
  -1.0426230E+01  -6.8695521E-01   3.5434029E+00
  -1.0788566E+01  -7.0356059E-01   3.6224046E+00
  -1.1162948E+01  -7.2129071E-01   3.7006106E+00
  -1.1550015E+01  -7.4028462E-01   3.7776730E+00
  -1.1950500E+01  -7.6070046E-01   3.8531985E+00
  -1.2365230E+01  -7.8271788E-01   3.9267416E+00
  -1.2795142E+01  -8.0654120E-01   3.9977930E+00
  -1.3241296E+01  -8.3240199E-01   4.0657659E+00
  -1.3704879E+01  -8.6056381E-01   4.1299849E+00
  -1.4187220E+01  -8.9132518E-01   4.1896658E+00
  -1.4689794E+01  -9.2502522E-01   4.2439003E+00
  -1.5214231E+01  -9.6204913E-01   4.2916327E+00
  -1.5762318E+01  -1.0028343E+00   4.3316412E+00
  -1.6336000E+01  -1.0478781E+00   4.3625126E+00
  -1.6937387E+01  -1.0977470E+00   4.3826208E+00
  -1.7568743E+01  -1.1530867E+00   4.3901043E+00
  -1.8232485E+01  -1.2146361E+00   4.3828449E+00
  -1.8931192E+01  -1.2832426E+00   4.3584452E+00
  -1.9667593E+01  -1.3598831E+00   4.3142099E+00
  -2.0444588E+01  -1.4456887E+00   4.2471242E+00
  -2.1265261E+01  -1.5419776E+00   4.1538215E+00
  -2.2132904E+01  -1.6502959E+00   4.0305448E+00
  -2.3051035E+01  -1.7724729E+00   3.8731019E+00
  -2.4023472E+01  -1.9106852E+00   3.6767726E+00
  -2.5054329E+01  -2.0675457E+00   3.4362087E+00
  -2.6148081E+01  -2.2462153E+00   3.1452997E+00
  -2.7309551E+01  -2.4505455E+00   2.7970080E+00
  -2.8543930E+01  -2.6852667E+00   2.3831792E+00
  -2.9856771E+01  -2.9562325E+00   1.8943175E+00
  -3.1253998E+01  -3.2707400E+00   1.3193092E+00