<?xml version="1.0"?>
<VTKFile type="StructuredGrid" version="0.1" byte_order="LittleEndian" header_type="UInt32" compressor="vtkZLibDataCompressor">
  <StructuredGrid WholeExtent="0 60 0 20 0 20">
  <Piece Extent="0 60 0 20 0 20">
    <PointData Vectors="B_total">
      <DataArray type="Float32" Name="B_total" NumberOfComponents="3" format="ascii" RangeMin="0" RangeMax="56772.23953713505">
        -10.294227 -1.5121384 3.175721 -10.638033 -1.5535889 3.2637305
        -10.990829 -1.5965496 3.3524683 -11.352813 -1.6411877 3.4416203
        -11.724225 -1.687696 3.53083 -12.105347 -1.7362977 3.6196926
        -12.496512 -1.7872488 3.7077508 -12.898116 -1.8408422 3.7944865
        -13.310616 -1.8974111 3.8793137 -13.734546 -1.9573337 3.96157
        -14.170514 -2.021037 4.0405064 -14.619215 -2.0890028 4.1152773
        -15.081432 -2.1617723 4.184929 -15.558035 -2.2399528 4.2483873
        -16.049974 -2.324223 4.3044467 -16.55829 -2.4153438 4.3517575
        -17.084091 -2.5141637 4.388818 -17.628548 -2.6216328 4.4139633
        -18.192871 -2.7388124 4.425364 -18.778292 -2.8668942 4.4210224
        -19.386042 -3.0072157 4.398776 -20.017319 -3.1612859 4.3563066
        -20.673246 -3.330813 4.2911515 -21.354843 -3.5177383 4.20072
        -22.062971 -3.7242773 4.0823126 -22.798275 -3.9529696 3.9331467
        -23.561123 -4.206734 3.750373 -24.35148 -4.488932 3.531114
        -25.168812 -4.803447 3.2725048 -26.011879 -5.154749 2.9717593
        -26.878555 -5.547996 2.6262844 -27.765535 -5.989105 2.233844
        -28.668056 -6.4848337 1.7928076 -29.579578 -7.0428276 1.3024824
        -30.491465 -7.6716223 0.76352906 -31.392689 -8.380516 0.17844054
        -32.2696 -9.179288 -0.44793496 -33.105682 -10.077575 -1.1078769
        -33.881447 -11.083847 -1.7902837 -34.574303 -12.203714 -2.480112
        -35.158695 -13.43754 -3.1577 -35.606586 -14.77722 -3.797724
        -35.888874 -16.202381 -4.3676844 -35.978367 -17.676533 -4.8259144
        -35.85501 -19.144136 -5.119564 -35.513596 -20.52991 -5.1835456
        -34.97323 -21.741854 -4.9417586 -34.286304 -22.678879 -4.3115745
        -33.54382 -23.242556 -3.211571 0.17340851 -0.2543249 0.44735432
        0.16724396 -0.21695805 0.47826147 0.14885521 -0.18422604 0.50745535
        0.12085629 -0.15946102 0.53183675 0.0872426 -0.14457893 0.5493605
        0.052384853 -0.13983536 0.55934834 0.020075798 -0.14402199 0.5623716
        -0.0070757866 -0.15501785 0.5598507 -0.02780819 -0.17037773 0.5535647
        -0.042028427 -0.18782043 0.5452278 -0.05042553 -0.2055397 0.5362373
        -0.054111958 -0.22227287 0.52757627 -10.338349 -1.4085257 3.167401
        -10.683628 -1.4465129 3.253544 -11.038055 -1.4858811 3.3402467
        -11.401858 -1.5267829 3.4271908 -11.775304 -1.5693958 3.5140145
        -12.158707 -1.6139246 3.6003084 -12.552437 -1.6606052 3.68561
        -12.956925 -1.709707 3.769396 -13.372676 -1.7615378 3.8510737
        -13.800264 -1.8164464 3.9299748 -14.240355 -1.8748289 4.005342
        -14.693695 -1.9371319 4.0763197 -15.161126 -2.003859 4.141943
        -15.643583 -2.0755763 4.201123 -16.14209 -2.1529207 4.2526374
        -16.657763 -2.2366068 4.2951145 -17.191795 -2.3274374 4.327025
        -17.745451 -2.4263146 4.3466716 -18.320055 -2.5342557 4.3521833
        -18.916962 -2.6524088 4.3415093 -19.537546 -2.7820754 4.312421
        -20.183167 -2.9247363 4.2625136 -20.85515 -3.0820851 4.189214
        -21.55475 -3.2560692 4.089792 -22.283102 -3.448935 3.9613624
        -23.041178 -3.6632922 3.8009028 -23.829733 -3.9021802 3.605261
        -24.649199 -4.169154 3.3711674 -25.499569 -4.4683795 3.0952606
        -26.380238 -4.8047485 2.77413 -27.289804 -5.18401 2.4043932
        -28.225811 -5.612905 1.9828217 -29.184446 -6.099326 1.5065253
        -30.16022 -6.652447 0.97320974 -31.145576 -7.2828236 0.3814751
        -32.13048 -8.002381 -0.26881757 -33.101933 -8.824218 -0.9761692
        -34.043354 -9.762034 -1.7370127 -34.93384 -10.829068 -2.5451927
        -35.747284 -12.036212 -3.391191 -36.45149 -13.389159 -4.2608447
        -37.007713 -14.884362 -5.1332474 -37.371475 -16.503986 -5.97754
        -37.49569 -18.210344 -6.7487445 -37.33748 -19.941063 -7.38343
        -36.869255 -21.606861 -7.7968626 -36.093197 -23.094193 -7.884025
        -35.05606 -24.27459 -7.5265775 -33.858994 -25.02095 -6.60628
        -32.65662 -25.227823 -5.022339 -6.2289934 -5.164835 -0.15634537
        0.18070889 -0.14507103 0.5298834 0.14185524 -0.1166687 0.56234455
        0.09630203 -0.10166931 0.584115 0.050374985 -0.0999403 0.59457874
        0.009253502 -0.10936451 0.5950806 -0.02380848 -0.12672806 0.5881219
        -0.04760933 -0.1485939 0.57655853 -0.06255674 -0.17198563 0.56295466
        -0.070022106 -0.19470978 0.5492399 -0.07177067 -0.21539068 0.5366538
        -10.370299 -1.2987211 3.156721 -10.716673 -1.3330292 3.2411385
        -11.072337 -1.3685814 3.3259714 -11.437543 -1.4055164 3.4108982
        -11.812585 -1.4439945 3.4955542 -12.197807 -1.484202 3.5795274
        -12.593612 -1.5263525 3.662352 -13.000466 -1.5706911 3.743502
        -13.418914 -1.6174978 3.8223815 -13.849575 -1.6670909 3.898318
        -14.293159 -1.7198317 3.9705496 -14.750467 -1.776129 4.0382147
        -15.222395 -1.836445 4.1003404 -15.709939 -1.9013004 4.155829
        -16.214191 -1.9712831 4.2034445 -16.736347 -2.0470555 4.2417984
        -17.27768 -2.1293652 4.269342 -17.839554 -2.219057 4.28435
        -18.423397 -2.3170886 4.2849145 -19.030693 -2.4245484 4.268941
        -19.662966 -2.5426803 4.2341385 -20.321753 -2.672911 4.1780243
        -21.008583 -2.8168862 4.097921 -21.724962 -2.9765167 3.990958
        -22.472324 -3.1540318 3.8540714 -23.25202 -3.3520467 3.6840003
        -24.065226 -3.573646 3.4772801 -24.912903 -3.8224826 3.2302399
        -25.79568 -4.102899 2.9389968 -26.713715 -4.4200726 2.5994701
        -27.66652 -4.7801876 2.2074127 -28.652718 -5.1906376 1.7584776
        -29.669788 -5.660251 1.2483188 -30.713707 -6.199527 0.67273146
        -31.778534 -6.8208513 0.027809821 -32.85588 -7.5386314 -0.68988377
        -33.934166 -8.369239 -1.4831295 -34.997578 -9.330595 -2.3538027
        -36.02461 -10.441156 -3.30242 -36.98621 -11.717999 -4.3271914
        -37.843616 -13.173625 -5.4221554 -38.546474 -14.811152 -6.573806
        -39.032463 -16.61793 -7.755812 -39.230087 -18.55789 -8.921873
        -39.066856 -20.564083 -9.9977865 -38.48425 -22.5338 -10.875344
        -37.459137 -24.329943 -11.411928 -36.027164 -25.791492 -11.439807
        -34.30052 -26.75498 -10.787058 -32.469875 -27.083265 -9.30694
        -30.784063 -26.693977 -6.906961 -7.1354856 -6.399891 -0.4549408
        0.16423416 -0.06578064 0.60985184 0.10291862 -0.05218315 0.6358943
        0.042993546 -0.055534363 0.64521503 -0.008582115 -0.072359085 0.64054966
        -0.04796219 -0.09797001 0.62616825 -0.074318886 -0.12774277 0.6065247
        -0.088944435 -0.15795231 0.58531475 -0.094236374 -0.18608952 0.56510603
        -0.09285259 -0.21078396 0.5473498 -10.392015 -1.1830657 3.1433337
        -10.739172 -1.2135026 3.2261548 -11.095745 -1.2450418 3.3092709
        -11.462007 -1.2778063 3.392358 -11.838275 -1.3119396 3.4750507
        -12.224922 -1.3476074 3.5569353 -12.62238 -1.3850007 3.6375456
        -13.031151 -1.4243385 3.716354 -13.451813 -1.4658712 3.792764
        -13.885024 -1.5098845 3.866101 -14.331537 -1.5567025 3.9356015
        -14.792203 -1.606693 4.0004015 -15.267969 -1.6602727 4.0595236
        -15.759889 -1.7179124 4.111863 -16.269121 -1.7801452 4.1561756
        -16.79693 -1.8475738 4.1910625 -17.344671 -1.9208814 4.2149568
        -17.913803 -2.0008438 4.2261124 -18.505861 -2.0883453 4.2225924
        -19.122454 -2.1843965 4.2022605 -19.765253 -2.2901602 4.162773
        -20.435976 -2.40698 4.101575 -21.136364 -2.536418 4.0158896
        -21.868183 -2.680303 3.902717 -22.633183 -2.8407874 3.758817
        -23.433098 -3.0204215 3.580695 -24.269579 -3.2222433 3.3645794
        -25.144163 -3.449891 3.1063924 -26.058184 -3.7077427 2.8017204
        -27.012672 -4.001087 2.445781 -28.008204 -4.336334 2.0334096
        -29.04471 -4.7212677 1.5590419 -30.12124 -5.1653447 1.0167155
        -31.235653 -5.6800327 0.40005288 -32.38416 -6.2791495 -0.29776967
        -33.560715 -6.979162 -1.0840993 -34.756042 -7.7993298 -1.9669151
        -35.956127 -8.761503 -2.9548573 -37.140064 -9.889341 -4.0569897
        -38.276978 -11.206474 -5.281809 -39.32232 -12.733224 -6.6348815
        -40.214016 -14.481266 -8.114166 -40.87012 -16.445915 -9.702236
        -41.19036 -18.596264 -11.355215 -41.06502 -20.86445 -12.98963
        -40.39417 -23.137186 -14.470812 -39.117558 -25.25408 -15.608793
        -37.250725 -27.018652 -16.169186 -34.91532 -28.224855 -15.903606
        -32.347507 -28.696266 -14.596549 -29.87197 -28.326998 -12.115099
        -27.842358 -27.108286 -8.440591 0.18647766 -0.009378433 0.68058777
        0.10492611 0.0005874634 0.710021 0.027917862 -0.010315895 0.7152443
        -0.035481453 -0.03676033 0.70137644 -0.081056595 -0.072247505 0.67540026
        -0.10883713 -0.1108408 0.6440058 -0.12155342 -0.14815712 0.6123314
        -0.12303543 -0.18154192 0.58358926 -0.11709213 -0.20980263 0.5593255
        -10.405567 -1.0619606 3.1277268 -10.75326 -1.0883543 3.209089
        -11.110478 -1.1157036 3.290647 -11.477514 -1.1441159 3.3720772
        -11.854706 -1.1737161 3.4530127 -12.242452 -1.2046489 3.5330412
        -12.64121 -1.2370814 3.6116965 -13.05151 -1.2712051 3.6884513
        -13.473962 -1.3072394 3.76271 -13.909263 -1.3454344 3.833799
        -14.358204 -1.3860753 3.900954 -14.821675 -1.4294852 3.9633102
        -15.300676 -1.4760315 4.0198884 -15.796311 -1.5261304 4.069582
        -16.3098 -1.580254 4.1111403 -16.84247 -1.6389381 4.143156
        -17.39576 -1.7027922 4.164051 -17.971209 -1.772511 4.1720614
        -18.570457 -1.8488902 4.1652265 -19.195238 -1.9328446 4.141374
        -19.847364 -2.0254316 4.0981145 -20.528723 -2.1278818 4.0328264
        -21.241278 -2.2416344 3.9426441 -21.987041 -2.3683867 3.8244448
        -22.76809 -2.510153 3.674823 -23.58654 -2.6693363 3.490062
        -24.444538 -2.8488288 3.2660933 -25.344217 -3.0521233 2.9984412
        -26.287663 -3.2834685 2.6821632 -27.27684 -3.5480537 2.3117752
        -28.313501 -3.8522477 1.8811677 -29.399036 -4.203889 1.3835089
        -30.534306 -4.6126432 0.8111106 -31.719378 -5.0904226 0.1552444
        -32.9531 -5.651846 -0.59413815 -34.232418 -6.3146973 -1.4487934
        -35.551247 -7.1002936 -2.4226775 -36.898563 -8.03356 -3.5324059
        -38.255455 -9.142547 -4.7973914 -39.59088 -10.45694 -6.2390757
        -40.856026 -12.004901 -7.878229 -41.97801 -13.80756 -9.729111
        -42.854633 -15.870382 -11.788936 -43.353462 -18.171227 -14.021972
        -43.320263 -20.646236 -16.339249 -42.601948 -23.17675 -18.578442
        -41.08683 -25.583492 -20.492731 -38.757515 -27.636223 -21.761267
        -35.74018 -29.084698 -22.03088 -32.324867 -29.709057 -20.987476
        -28.9342 -29.375467 -18.436617 -26.038792 -28.074444 -14.359005
        -24.046858 -25.922546 -8.910904 0.09971619 0.04978943 0.81107044
        0.002828598 0.028921127 0.8075228 -0.073070526 -0.008769989 0.7788372
        -0.12388515 -0.054793358 0.73594713 -0.15123558 -0.10203362 0.68848014
        -0.15993786 -0.14568186 0.6432018 -0.15569782 -0.1832304 0.60386616
        -0.1436472 -0.21390772 0.57186484 -10.412996 -0.9359257 3.1110048
        -10.761041 -0.9581233 3.1910655 -11.118701 -0.9811254 3.2712436
        -11.486289 -1.0050229 3.351215 -11.864163 -1.0299217 3.4306145
        -12.252739 -1.0559444 3.5090299 -12.652499 -1.083233 3.5859964
        -13.063999 -1.1119499 3.6609893 -13.487878 -1.1422819 3.7334142
        -13.924863 -1.1744418 3.8025982 -14.375777 -1.2086724 3.8677795
        -14.841553 -1.2452497 3.9280937 -15.323229 -1.2844877 3.9825618
        -15.821959 -1.326743 4.030075 -16.339012 -1.3724209 4.0693808
        -16.875782 -1.4219829 4.0990663 -17.43377 -1.4759554 4.117544
        -18.014599 -1.5349404 4.123037 -18.620007 -1.5996307 4.113563
        -19.251835 -1.6708255 4.086923 -19.912027 -1.7494537 4.0406847
        -20.602642 -1.836601 3.9721694 -21.325836 -1.9335458 3.8784313
        -22.083872 -2.0418034 3.7562368 -22.879128 -2.163184 3.6020303
        -23.714102 -2.2998621 3.4118893 -24.591413 -2.4544733 3.181467
        -25.513794 -2.630227 2.9059148 -26.484083 -2.8310611 2.5797863
        -27.5052 -3.0618298 2.1969156 -28.580097 -3.3285513 1.7502713
        -29.71171 -3.638722 1.2317548 -30.902836 -4.001696 0.63193715
        -32.155952 -4.429163 -0.060330234 -33.47288 -4.9356914 -0.8584622
        -34.85406 -5.539319 -1.778908 -36.297356 -6.2621126 -2.8420959
        -37.79579 -7.130531 -4.0734777 -39.333946 -8.175308 -5.504245
        -40.882465 -9.430424 -7.1710396 -42.39041 -10.93038 -9.1132965
        -43.776047 -12.704947 -11.366454 -44.917835 -14.77024 -13.94874
        -45.64973 -17.115475 -16.839737 -45.767395 -19.685886 -19.951096
        -45.053864 -22.365152 -23.094465 -43.33094 -24.964539 -25.959068
        -40.53289 -27.229303 -28.118095 -36.78194 -28.872135 -29.082825
        -32.42747 -29.633415 -28.405941 -28.01131 -29.3519 -25.806137
        -24.151241 -28.015366 -21.25837 -21.382841 -25.764896 -15.000122
        -16.413599 -18.726759 -5.9378147 -0.03373909 0.05191803 0.92161465
        -0.12167549 0.0030403137 0.87132454 -0.17577362 -0.052283287 0.80562973
        -0.20018387 -0.1061554 0.7377167 -0.20247364 -0.15382862 0.67596364
        -0.19057846 -0.19327545 0.62437403 -0.1710453 -0.22436571 0.58381003
        -10.416195 -0.80561364 3.0946145 -10.764452 -0.8234822 3.1735587
        -11.122406 -0.84199995 3.2525594 -11.490375 -0.8612406 3.3312936
        -11.868737 -0.88129044 3.409397 -12.257925 -0.9022491 3.4864593
        -12.65844 -0.92423177 3.562017 -13.070859 -0.947371 3.6355479
        -13.495844 -0.9718188 3.706459 -13.934149 -0.99774855 3.7740805
        -14.386627 -1.0253587 3.837652 -14.854241 -1.0548748 3.8963108
        -15.338068 -1.0865537 3.9490788 -15.839298 -1.1206878 3.9948473
        -16.359251 -1.1576102 4.0323625 -16.899366 -1.1977006 4.0602074
        -17.461212 -1.2413938 4.076789 -18.046478 -1.2891883 4.0803185
        -18.656982 -1.3416588 4.0687995 -19.294668 -1.3994721 4.040007
        -19.961601 -1.4634051 3.9914756 -20.65998 -1.5343702 3.9204757
        -21.392143 -1.6134459 3.8239946 -22.160578 -1.7019174 3.698701
        -22.967936 -1.8013282 3.540908 -23.817066 -1.9135413 3.3465118
        -24.711021 -2.0408287 3.1109188 -25.653091 -2.185976 2.8289447
        -26.646822 -2.3524222 2.4946852 -27.696045 -2.544442 2.1013532
        -28.804882 -2.7673795 1.6410573 -29.97776 -3.0279486 1.1045153
        -31.219406 -3.3346176 0.48063895 -32.534744 -3.6980865 -0.24405183
        -33.928646 -4.131858 -1.0862684 -35.4053 -4.652896 -2.0671077
        -36.966923 -5.282306 -3.213541 -38.611343 -6.0459127 -4.560113
        -40.327805 -6.9744916 -6.1504307 -42.09034 -8.103214 -8.037605
        -43.848225 -9.469611 -10.282037 -45.513577 -11.108989 -12.944112
        -46.94805 -13.046036 -16.068584 -47.953133 -15.281483 -19.657513
        -48.27242 -17.773584 -23.630653 -47.618263 -20.417416 -27.778528
        -45.73379 -23.029308 -31.724054 -42.490242 -25.348888 -34.920574
        -37.995003 -27.071627 -36.71724 -32.657463 -27.914652 -36.50121
        -27.153934 -27.698189 -33.87879 -22.273846 -26.40652 -28.813313
        -18.702095 -24.194729 -21.639877 -16.839756 -21.335606 -12.942019
        -0.08119011 0.046020508 1.051199 -0.17918587 -0.011117935 0.9725561
        -0.23374557 -0.071653366 0.8789463 -0.25240707 -0.12777328 0.78728247
        -0.24606514 -0.17534924 0.70732164 -0.2250061 -0.21319103 0.64280665
        -0.19713211 -0.24189639 0.59363174 -10.416795 -0.6717889 3.0800784
        -10.765174 -0.685218 3.1581202 -11.123308 -0.69913715 3.2361732
        -11.49153 -0.7136025 3.3139157 -11.870227 -0.7286794 3.3909845
        -12.259848 -0.74444383 3.4669716 -12.660908 -0.7609835 3.5414152
        -13.074001 -0.7783994 3.613794 -13.499809 -0.7968072 3.6835191
        -13.939104 -0.81633955 3.7499213 -14.392766 -0.83714753 3.8122425
        -14.861782 -0.8594037 3.8696225 -15.347255 -0.8833047 3.921084
        -15.850412 -0.9090746 3.965519 -16.372606 -0.93696874 4.0016727
        -16.915323 -0.96727943 4.0281262 -17.480175 -1.0003413 4.043282
        -18.068914 -1.0365394 4.045344 -18.683424 -1.076319 4.032302
        -19.32573 -1.120197 4.001913 -19.997995 -1.1687785 3.951684
        -20.702543 -1.2227764 3.8788457 -21.441858 -1.2830355 3.780329
        -22.218613 -1.3505677 3.652725 -23.035704 -1.4265889 3.4922361
        -23.896265 -1.512579 3.2946107 -24.803728 -1.610346 3.0550485
        -25.761862 -1.7221187 2.7680838 -26.774834 -1.8506645 2.4274266
        -27.847261 -1.9994414 2.025757 -28.984308 -2.1728 1.5544485
        -30.191748 -2.376247 1.003186 -31.476044 -2.6167786 0.3594243
        -32.84438 -2.9033134 -0.39238402 -34.30449 -3.2472165 -1.2719077
        -35.864132 -3.6629267 -2.3044791 -37.529854 -4.1686463 -3.523102
        -39.30441 -4.7869945 -4.970848 -41.18223 -5.545469 -6.7032013
        -43.141853 -6.4762926 -8.789401 -45.13461 -7.6150827 -11.310961
        -47.069336 -8.997316 -14.35434 -48.794685 -10.651325 -17.993534
        -50.083675 -12.586308 -22.257767 -50.631004 -14.774884 -27.081566
        -50.07858 -17.132019 -32.24151 -48.08658 -19.497196 -37.298775
        -44.45446 -21.632294 -41.5846 -39.26491 -23.249567 -44.274548
        -32.981667 -24.074718 -44.571774 -26.418177 -23.929373 -41.953712
        -20.54451 -22.795279 -36.36665 -16.203417 -20.822727 -28.251747
        -13.876703 -18.276695 -18.378433 -7.1960278 -8.097158 -3.408947
        -0.24022102 -0.05936241 1.0705795 -0.29201317 -0.11792469 0.9466791
        -0.30259132 -0.16955662 0.83061695 -0.28622818 -0.21139097 0.7328439
        -0.2554493 -0.24321651 0.6563237 -0.21926975 -0.26627636 0.5995773
        -10.416112 -0.5352934 3.0687761 -10.764551 -0.544198 3.1461542
        -11.122787 -0.55343014 3.2235131 -11.491163 -0.56302786 3.3005316
        -11.870073 -0.57303524 3.3768482 -12.259977 -0.58350366 3.452055
        -12.661401 -0.59449255 3.5256927 -13.074951 -0.60607 3.5972419
        -13.501322 -0.6183144 3.6661143 -13.941304 -0.63131565 3.7316437
        -14.395789 -0.6451762 3.7930734 -14.865786 -0.6600131 3.8495443
        -15.352418 -0.6759598 3.9000812 -15.856936 -0.69316864 3.9435759
        -16.380722 -0.7118137 3.9787738 -16.92529 -0.73209393 4.004256
        -17.492289 -0.75423807 4.0184193 -18.083515 -0.7785092 4.0194635
        -18.700901 -0.80521244 4.0053697 -19.346535 -0.83470273 3.9738815
        -20.022652 -0.8673964 3.9224846 -20.73167 -0.9037844 3.8483822
        -21.476185 -0.94445115 3.7484624 -22.25901 -0.9900973 3.6192584
        -23.083218 -1.0415671 3.4568925 -23.952171 -1.0998908 3.256999
        -24.869589 -1.166331 3.0146248 -25.839613 -1.242449 2.7240918
        -26.866882 -1.3301895 2.3788164 -27.956646 -1.431992 1.971072
        -29.114876 -1.5509388 1.4916648 -30.348415 -1.690948 0.9294778
        -31.66513 -1.8570242 0.2708311 -33.074024 -2.055584 -0.5014572
        -34.585182 -2.294857 -1.4094093 -36.209354 -2.5853834 -2.4817562
        -37.956764 -2.940566 -3.7564096 -39.83452 -3.3772507 -5.283461
        -41.841805 -3.9161954 -7.1283193 -43.9617 -4.582156 -9.373957
        -46.148506 -5.4031677 -12.120256 -48.310043 -6.408226 -15.476995
        -50.286133 -7.6222887 -19.545317 -51.82798 -9.057323 -24.381287
        -52.590134 -10.698594 -29.937017 -52.153835 -12.487238 -35.98249
        -50.104343 -14.304261 -42.02908 -46.172504 -15.966333 -47.300823
        -40.41195 -17.246014 -50.81388 -33.329067 -17.92153 -51.597565
        -25.85814 -17.845081 -49.003944 -19.133087 -16.998785 -42.95991
        -14.140486 -15.503 -34.005196 -11.434263 -13.571228 -23.083359
        -11.048475 -11.438951 -11.207955 -0.29623985 -0.14409304 1.148716
        -0.34252167 -0.19136286 0.99710464 -0.34391785 -0.23056412 0.8599634
        -0.31768417 -0.26045966 0.74771833 -0.2780714 -0.28175592 0.66209054
        -0.23476791 -0.2960409 0.6000718 -10.415104 -0.3970125 3.0617871
        -10.763563 -0.4013348 3.1387613 -11.121845 -0.40581992 3.2156982
        -11.490297 -0.41048723 3.2922778 -11.869321 -0.4153591 3.3681386
        -12.259377 -0.42046183 3.4428742 -12.661003 -0.42582566 3.5160263
        -13.074811 -0.43148535 3.587076 -13.501504 -0.43748108 3.6554365
        -13.941879 -0.44385862 3.720443 -14.396842 -0.45067045 3.78134
        -14.867411 -0.4579767 3.8372686 -15.354722 -0.46584567 3.8872552
        -15.860041 -0.47435567 3.9301925 -16.384766 -0.48359603 3.9648254
        -16.93043 -0.49366933 3.9897335 -17.498705 -0.5046933 4.0033135
        -18.091412 -0.51680386 4.0037613 -18.710518 -0.5301586 3.9890523
        -19.358143 -0.544941 3.956922 -20.036573 -0.56136656 3.9048448
        -20.74828 -0.5796901 3.830005 -21.49593 -0.6002147 3.7292657
        -22.282425 -0.6233047 3.5991254 -23.11095 -0.6493981 3.4356556
        -23.985006 -0.67903084 3.2344232 -24.908497 -0.71286 2.9903784
        -25.885796 -0.7516991 2.697712 -26.921848 -0.7965607 2.3496578
        -28.022295 -0.84871805 1.9382354 -29.193634 -0.90977895 1.453894
        -30.443401 -0.9817917 0.88501376 -31.780361 -1.0673752 0.21719134
        -33.21471 -1.1698942 -0.5678013 -34.75809 -1.293675 -1.493495
        -36.42325 -1.444273 -2.590825 -38.22288 -1.6287867 -3.9009075
        -40.167107 -1.8561858 -5.4784613 -42.258484 -2.1375992 -7.395505
        -44.483475 -2.486442 -9.74428 -46.798935 -2.9181213 -12.637249
        -49.112854 -3.4489489 -16.200487 -51.260162 -4.0935807 -20.554539
        -52.978546 -4.8603334 -25.775465 -53.896297 -5.7436647 -31.829897
        -53.55339 -6.7142744 -38.486183 -51.4824 -7.7094927 -45.223896
        -47.36384 -8.629973 -51.19335 -41.227478 -9.350555 -55.29751
        -33.606014 -9.746248 -56.43895 -25.517212 -9.730333 -53.876377
        -18.210636 -9.28949 -47.5201 -12.775097 -8.489176 -37.980133
        -9.815607 -7.4477644 -26.325476 -9.358116 -6.2962074 -13.69972
        -0.33725548 -0.2584176 1.1895523 -0.37663078 -0.28544378 1.0188246
        -0.3696518 -0.30513525 0.86840725 -0.3355484 -0.31796205 0.74801445
        -0.289505 -0.3252498 0.6580181 -0.24140263 -0.32852125 0.5941026
        -10.414351 -0.25785005 3.059793 -10.762805 -0.25756156 3.1366355
        -11.121089 -0.2572699 3.213435 -11.489553 -0.25697556 3.2898712
        -11.868599 -0.25667918 3.3655832 -12.258692 -0.25638145 3.4401653
        -12.660369 -0.2560832 3.5131588 -13.074245 -0.25578552 3.5840456
        -13.501027 -0.2554896 3.6522396 -13.941515 -0.255197 3.7170753
        -14.396616 -0.2549093 3.7777987 -14.867353 -0.25462866 3.833551
        -15.354868 -0.25435755 3.8833585 -15.860429 -0.25409868 3.9261146
        -16.38544 -0.2538556 3.9605641 -16.931442 -0.25363216 3.9852862
        -17.500114 -0.2534331 3.9986777 -18.093285 -0.2532638 3.998933
        -18.712927 -0.2531308 3.9840257 -19.361181 -0.2530414 3.9516897
        -20.040344 -0.25300458 3.899394 -20.752907 -0.25303024 3.824319
        -21.50156 -0.25313064 3.7233186 -22.289236 -0.25331986 3.5928798
        -23.119154 -0.25361222 3.429059 -23.994865 -0.25402611 3.2274
        -24.920334 -0.25458205 2.9828222 -25.900017 -0.255302 2.6894732
        -26.938957 -0.25621155 2.340528 -28.042942 -0.25733608 1.9279219
        -29.218643 -0.2587037 1.4419875 -30.473833 -0.2603401 0.87093526
        -31.817602 -0.26226783 0.20012082 -33.26056 -0.2645035 -0.58902925
        -34.814903 -0.26704827 -1.5205677 -36.494072 -0.2698855 -2.626173
        -38.311676 -0.27296796 -3.9480598 -40.278904 -0.27620876 -5.54255
        -42.39957 -0.27947485 -7.48397 -44.66142 -0.2825952 -9.867809
        -47.02236 -0.28537956 -12.811022 -49.390617 -0.28770182 -16.445515
        -51.59971 -0.28959 -20.898962 -53.38285 -0.2914383 -26.254936
        -54.35936 -0.294137 -32.485897 -54.05468 -0.29911616 -39.360497
        -51.98236 -0.30816907 -46.34792 -47.80404 -0.32321617 -52.57308
        -41.539352 -0.34685194 -56.898323 -33.729618 -0.37894538 -58.179596
        -25.421432 -0.41430774 -55.640102 -17.905323 -0.44766805 -49.18182
        -12.307457 -0.4740073 -39.438408 -9.252548 -0.48914483 -27.523426
        -8.765129 -0.4909485 -14.627522 -0.3550396 -0.3857341 1.1811199
        -0.38775826 -0.38709816 1.0047722 -0.37504768 -0.38346243 0.852211
        -0.33666992 -0.37679172 0.73201036 -0.28779602 -0.36867303 0.6435025
        -0.23805714 -0.36022264 0.58162165 -10.414049 -0.11871582 3.0630262
        -10.762475 -0.11381789 3.1400137 -11.120723 -0.10875089 3.2169638
        -11.489138 -0.10349656 3.2935565 -11.868121 -0.09803352 3.36943
        -12.258135 -0.09233712 3.4441788 -12.659717 -0.08637883 3.5173435
        -13.073477 -0.08012585 3.588406 -13.500117 -0.0735406 3.6567795
        -13.940439 -0.06658016 3.7217984 -14.395343 -0.059195563 3.7827077
        -14.865848 -0.05133096 3.838649 -15.353092 -0.042922713 3.888648
        -15.858337 -0.033898428 3.9315975 -16.382984 -0.024175426 3.9662428
        -16.928564 -0.013659202 3.9911635 -17.496746 -0.0022412855 4.0047565
        -18.089355 0.010203175 4.005218 -18.708353 0.023818815 3.990524
        -19.355862 0.03877435 3.9584107 -20.034166 0.0552676 3.906352
        -20.745735 0.07353288 3.8315346 -21.493235 0.09384948 3.7308228
        -22.279568 0.11655281 3.6007156 -23.107918 0.14205241 3.437289
        -23.981785 0.17084694 3.236111 -24.90507 0.20355305 2.9921377
        -25.882147 0.24093823 2.6995633 -26.917963 0.28396618 2.3516307
        -28.018166 0.33385572 1.9403688 -29.189247 0.39216062 1.4562389
        -30.438751 0.460875 0.88763654 -31.77546 0.542571 0.22017881
        -33.209576 0.64057827 -0.5643345 -34.75276 0.75921535 -1.4894019
        -36.417793 0.90406823 -2.5859208 -38.217415 1.0823193 -3.894954
        -40.161797 1.3030998 -5.4711685 -42.253586 1.5777891 -7.3865285
        -44.479347 1.9201235 -9.733217 -46.796074 2.3458612 -12.623672
        -49.111977 2.8715432 -16.183989 -51.26222 3.5117536 -20.534855
        -52.984848 4.274055 -25.752655 -53.908585 5.151208 -31.804708
        -53.573746 6.1112175 -38.460506 -51.51292 7.0880527 -45.201385
        -47.40556 7.9786916 -51.179977 -41.279243 8.653905 -55.30115
        -33.664837 8.989582 -56.467403 -25.576902 8.907774 -53.934708
        -18.262482 8.4050865 -47.608105 -12.811111 7.5562286 -38.091324
        -9.831665 6.4872007 -26.448795 -9.355017 5.332839 -13.823033
        -0.34630394 -0.50400925 1.1222248 -0.37389755 -0.48002028 0.9553747
        -0.35909843 -0.45397282 0.812521 -0.32072258 -0.42898083 0.7010536
        -0.2730255 -0.4066484 0.61980605 -0.22500706 -0.38755786 0.5636873
        -10.414004 0.019480722 3.0712543 -10.762378 0.028956788 3.1486588
        -11.120544 0.038766388 3.226044 -11.488846 0.048946448 3.3030884
        -11.867678 0.0595399 3.379431 -12.257498 0.07059662 3.4546638
        -12.658832 0.08217417 3.5283277 -13.072288 0.09433862 3.5999024
        -13.498557 0.10716594 3.6688004 -13.938429 0.12074283 3.734355
        -14.392798 0.13516825 3.7958097 -14.862669 0.1505551 3.8523054
        -15.349167 0.16703196 3.9028668 -15.853541 0.1847453 3.9463863
        -16.37717 0.20386222 3.9816093 -16.92157 0.22457376 4.0071163
        -17.488388 0.24709915 4.021306 -18.079418 0.2716904 4.022378
        -18.69659 0.2986396 4.0083137 -19.341993 0.32828647 3.9768589
        -20.01786 0.36102977 3.9255002 -20.726604 0.3973396 3.8514416
        -21.470825 0.4377766 3.7515755 -22.25333 0.4830119 3.6224377
        -23.077192 0.533861 3.4601555 -23.945772 0.5913162 3.2603698
        -24.862785 0.65659904 3.0181344 -25.832378 0.7312248 2.7277818
        -26.85919 0.8170867 2.3827436 -27.948471 0.91656995 1.9753104
        -29.106205 1.0327 1.4963118 -30.339243 1.1693368 0.9346639
        -31.65547 1.3314333 0.2767214 -33.06392 1.5253661 -0.49464566
        -34.57472 1.7593465 -1.4013984 -36.198677 2.0439258 -2.4721951
        -37.946102 2.392573 -3.744859 -39.82423 2.8222656 -5.2693853
        -41.832397 3.353959 -7.1110888 -43.9539 4.0126805 -9.352856
        -46.143322 4.826749 -12.094548 -48.30888 5.825331 -15.44604
        -50.290882 7.0332985 -19.508797 -51.84115 8.461948 -24.339567
        -52.614933 10.095104 -29.891796 -52.19404 11.871704 -35.937702
        -50.163486 13.670017 -41.991833 -46.252354 15.303946 -47.281998
        -40.51074 16.544107 -50.827362 -33.440228 17.17033 -51.656868
        -25.969591 17.041037 -49.11752 -19.22912 16.145998 -43.126667
        -14.207102 14.612643 -34.21305 -11.464357 12.660211 -23.312397
        -11.043491 10.527122 -11.436576 -0.3140583 -0.5933533 1.0237541
        -0.33833504 -0.54988146 0.87890625 -0.3249054 -0.5067558 0.7553587
        -0.2903366 -0.4678626 0.6593623 -0.2473278 -0.43478537 0.5898292
        -0.20389366 -0.40766382 0.5422665 -10.413643 0.15583608 3.0837953
        -10.761924 0.16982989 3.1618764 -11.119953 0.1843192 3.2399688
        -11.488065 0.19935906 3.3177507 -11.866645 0.21501365 3.3948586
        -12.25614 0.23135746 3.4708848 -12.657067 0.24847627 3.5453672
        -13.07002 0.2664688 3.6177847 -13.495676 0.2854484 3.6875482
        -13.93481 0.30554444 3.7539883 -14.388299 0.32690448 3.8163474
        -14.857129 0.3496968 3.8737643 -15.342402 0.37411296 3.9252632
        -15.845345 0.400371 3.9697354 -16.36731 0.4287196 4.0059266
        -16.909777 0.45944253 4.0324187 -17.474361 0.49286503 4.0476136
        -18.062809 0.5293607 4.0497165 -18.677006 0.56936175 4.0367193
        -19.31897 0.6133695 4.00638 -19.990866 0.6619714 3.9562068
        -20.695013 0.71585876 3.8834343 -21.433897 0.7758528 3.7849967
        -22.210186 0.8429348 3.6574893 -23.02677 0.91829234 3.4971228
        -23.886786 1.0033659 3.299653 -24.793663 1.0999216 3.0602913
        -25.751171 1.2101413 2.7735872 -26.763481 1.3367393 2.4332707