# vtk DataFile Version 3.0
SM polar seed points transformed to GSW coordinates
ASCII
DATASET POLYDATA
POINTS      288 float
       0.962168       0.000000       1.150753
       0.936993       0.194114       1.155146
       0.863183       0.375000       1.168028
       0.745769       0.530330       1.188519
       0.592752       0.649519       1.215224
       0.414560       0.724444       1.246323
       0.223336       0.750000       1.279696
       0.032112       0.724444       1.313069
      -0.146081       0.649519       1.344167
      -0.299098       0.530330       1.370872
      -0.416512       0.375000       1.391364
      -0.490322       0.194114       1.404245
      -0.515497      -0.000000       1.408639
      -0.490322      -0.194114       1.404245
      -0.416512      -0.375000       1.391364
      -0.299098      -0.530330       1.370872
      -0.146081      -0.649519       1.344167
       0.032112      -0.724444       1.313069
       0.223336      -0.750000       1.279696
       0.414560      -0.724444       1.246323
       0.592752      -0.649519       1.215224
       0.745769      -0.530330       1.188519
       0.863183      -0.375000       1.168028
       0.936993      -0.194114       1.155146
       0.858212       0.000000       1.230232
       0.836933       0.164072       1.233946
       0.774547       0.316964       1.244834
       0.675304       0.448254       1.262154
       0.545968       0.548997       1.284726
       0.395353       0.612327       1.311012
       0.233724       0.633927       1.339220
       0.072094       0.612327       1.367428
      -0.078520       0.548997       1.393713
      -0.207856       0.448254       1.416285
      -0.307099       0.316964       1.433605
      -0.369485       0.164073       1.444493
      -0.390764      -0.000000       1.448207
      -0.369485      -0.164073       1.444493
      -0.307099      -0.316964       1.433605
      -0.207856      -0.448254       1.416285
      -0.078520      -0.548997       1.393713
       0.072095      -0.612327       1.367428
       0.233724      -0.633927       1.339220
       0.395353      -0.612327       1.311012
       0.545968      -0.548997       1.284726
       0.675304      -0.448254       1.262154
       0.774547      -0.316964       1.244834
       0.836933      -0.164073       1.233946
       0.747725       0.000000       1.300349
       0.730504       0.132782       1.303355
       0.680015       0.256515       1.312166
       0.599699       0.362767       1.326183
       0.495029       0.444297       1.344450
       0.373138       0.495549       1.365723
       0.242333       0.513030       1.388551
       0.111529       0.495549       1.411380
      -0.010362       0.444297       1.432652
      -0.115032       0.362767       1.450920
      -0.195348       0.256515       1.464937
      -0.245837       0.132782       1.473748
      -0.263058      -0.000000       1.476753
      -0.245837      -0.132782       1.473748
      -0.195348      -0.256515       1.464937
      -0.115032      -0.362767       1.450920
      -0.010362      -0.444297       1.432652
       0.111529      -0.495549       1.411380
       0.242333      -0.513030       1.388551
       0.373138      -0.495549       1.365723
       0.495029      -0.444297       1.344450
       0.599699      -0.362767       1.326183
       0.680015      -0.256515       1.312166
       0.730504      -0.132782       1.303355
       0.631547       0.000000       1.360569
       0.618515       0.100481       1.362844
       0.580308       0.194114       1.369512
       0.519530       0.274519       1.380119
       0.440323       0.336216       1.393942
       0.348083       0.375000       1.410040
       0.249099       0.388229       1.427315
       0.150114       0.375000       1.444590
       0.057875       0.336216       1.460688
      -0.021333       0.274519       1.474512
      -0.082111       0.194114       1.485119
      -0.120318       0.100481       1.491787
      -0.133349      -0.000000       1.494061
      -0.120318      -0.100481       1.491787
      -0.082111      -0.194114       1.485119
      -0.021333      -0.274519       1.474512
       0.057875      -0.336216       1.460688
       0.150114      -0.375000       1.444590
       0.249099      -0.388229       1.427315
       0.348083      -0.375000       1.410040
       0.440323      -0.336216       1.393942
       0.519530      -0.274519       1.380119
       0.580308      -0.194114       1.369512
       0.618515      -0.100481       1.362844
       0.510562       0.000000       1.410435
       0.501819       0.067415       1.411961
       0.476185       0.130236       1.416434
       0.435407       0.184182       1.423551
       0.382265       0.225576       1.432826
       0.320379       0.251597       1.443626
       0.253968       0.260472       1.455216
       0.187557       0.251597       1.466807
       0.125671       0.225576       1.477607
       0.072529       0.184182       1.486881
       0.031751       0.130236       1.493998
       0.006117       0.067415       1.498472
      -0.002626      -0.000000       1.499998
       0.006117      -0.067415       1.498472
       0.031751      -0.130236       1.493998
       0.072529      -0.184182       1.486881
       0.125671      -0.225576       1.477607
       0.187557      -0.251597       1.466807
       0.253968      -0.260472       1.455216
       0.320379      -0.251597       1.443626
       0.382265      -0.225576       1.432826
       0.435407      -0.184182       1.423551
       0.476185      -0.130236       1.416434
       0.501819      -0.067415       1.411961
       0.385692       0.000000       1.449566
       0.381303       0.033836       1.450332
       0.368437       0.065367       1.452577
       0.347971       0.092443       1.456149
       0.321298       0.113219       1.460804
       0.290237       0.126279       1.466225
       0.256904       0.130734       1.472042
       0.223572       0.126279       1.477860
       0.192511       0.113219       1.483280
       0.165838       0.092443       1.487935
       0.145372       0.065367       1.491507
       0.132506       0.033836       1.493753
       0.128117      -0.000000       1.494519
       0.132506      -0.033836       1.493753
       0.145372      -0.065367       1.491507
       0.165838      -0.092443       1.487935
       0.192511      -0.113219       1.483280
       0.223572      -0.126279       1.477860
       0.256905      -0.130734       1.472042
       0.290237      -0.126279       1.466225
       0.321298      -0.113219       1.460804
       0.347971      -0.092443       1.456149
       0.368437      -0.065367       1.452577
       0.381303      -0.033836       1.450332
       0.515497       0.000000      -1.408639
       0.490322       0.194114      -1.404245
       0.416512       0.375000      -1.391364
       0.299098       0.530330      -1.370872
       0.146081       0.649519      -1.344167
      -0.032112       0.724444      -1.313069
      -0.223336       0.750000      -1.279696
      -0.414560       0.724444      -1.246323
      -0.592752       0.649519      -1.215224
      -0.745769       0.530330      -1.188519
      -0.863183       0.375000      -1.168028
      -0.936993       0.194114      -1.155146
      -0.962168      -0.000000      -1.150753
      -0.936993      -0.194114      -1.155146
      -0.863184      -0.375000      -1.168028
      -0.745769      -0.530330      -1.188519
      -0.592752      -0.649519      -1.215224
      -0.414560      -0.724444      -1.246323
      -0.223336      -0.750000      -1.279696
      -0.032112      -0.724444      -1.313069
       0.146081      -0.649519      -1.344167
       0.299098      -0.530330      -1.370872
       0.416512      -0.375000      -1.391364
       0.490322      -0.194114      -1.404245
       0.390764       0.000000      -1.448207
       0.369485       0.164072      -1.444493
       0.307099       0.316964      -1.433605
       0.207856       0.448254      -1.416285
       0.078520       0.548997      -1.393713
      -0.072094       0.612327      -1.367428
      -0.233724       0.633927      -1.339220
      -0.395353       0.612327      -1.311012
      -0.545968       0.548997      -1.284726
      -0.675304       0.448254      -1.262154
      -0.774547       0.316964      -1.244834
      -0.836933       0.164073      -1.233946
      -0.858212      -0.000000      -1.230232
      -0.836933      -0.164073      -1.233946
      -0.774547      -0.316964      -1.244834
      -0.675304      -0.448254      -1.262154
      -0.545968      -0.548997      -1.284726
      -0.395353      -0.612327      -1.311012
      -0.233724      -0.633927      -1.339220
      -0.072094      -0.612327      -1.367428
       0.078520      -0.548997      -1.393713
       0.207856      -0.448254      -1.416285
       0.307099      -0.316964      -1.433605
       0.369485      -0.164073      -1.444493
       0.263058       0.000000      -1.476753
       0.245837       0.132782      -1.473748
       0.195348       0.256515      -1.464937
       0.115032       0.362767      -1.450920
       0.010362       0.444297      -1.432652
      -0.111529       0.495549      -1.411380
      -0.242333       0.513030      -1.388551
      -0.373138       0.495549      -1.365723
      -0.495029       0.444297      -1.344450
      -0.599699       0.362767      -1.326183
      -0.680015       0.256515      -1.312166
      -0.730504       0.132782      -1.303355
      -0.747725      -0.000000      -1.300349
      -0.730504      -0.132782      -1.303355
      -0.680015      -0.256515      -1.312166
      -0.599699      -0.362767      -1.326183
      -0.495029      -0.444297      -1.344450
      -0.373138      -0.495549      -1.365723
      -0.242333      -0.513030      -1.388551
      -0.111529      -0.495549      -1.411380
       0.010362      -0.444297      -1.432652
       0.115032      -0.362767      -1.450920
       0.195348      -0.256515      -1.464937
       0.245837      -0.132782      -1.473748
       0.133349       0.000000      -1.494061
       0.120318       0.100481      -1.491787
       0.082111       0.194114      -1.485119
       0.021333       0.274519      -1.474512
      -0.057875       0.336216      -1.460688
      -0.150114       0.375000      -1.444590
      -0.249099       0.388229      -1.427315
      -0.348083       0.375000      -1.410040
      -0.440323       0.336216      -1.393942
      -0.519530       0.274519      -1.380119
      -0.580308       0.194114      -1.369512
      -0.618515       0.100481      -1.362844
      -0.631547      -0.000000      -1.360569
      -0.618515      -0.100481      -1.362844
      -0.580308      -0.194114      -1.369512
      -0.519530      -0.274519      -1.380119
      -0.440323      -0.336216      -1.393942
      -0.348083      -0.375000      -1.410040
      -0.249099      -0.388229      -1.427315
      -0.150114      -0.375000      -1.444590
      -0.057875      -0.336216      -1.460688
       0.021333      -0.274519      -1.474512
       0.082111      -0.194114      -1.485119
       0.120318      -0.100481      -1.491787
       0.002626       0.000000      -1.499998
      -0.006117       0.067415      -1.498472
      -0.031751       0.130236      -1.493998
      -0.072529       0.184182      -1.486881
      -0.125671       0.225576      -1.477607
      -0.187557       0.251597      -1.466807
      -0.253968       0.260472      -1.455216
      -0.320379       0.251597      -1.443626
      -0.382265       0.225576      -1.432826
      -0.435407       0.184182      -1.423551
      -0.476185       0.130236      -1.416434
      -0.501819       0.067415      -1.411961
      -0.510562      -0.000000      -1.410435
      -0.501819      -0.067415      -1.411961
      -0.476185      -0.130236      -1.416434
      -0.435407      -0.184182      -1.423551
      -0.382265      -0.225576      -1.432826
      -0.320379      -0.251597      -1.443626
      -0.253968      -0.260472      -1.455216
      -0.187557      -0.251597      -1.466807
      -0.125671      -0.225576      -1.477607
      -0.072529      -0.184182      -1.486881
      -0.031751      -0.130236      -1.493998
      -0.006117      -0.067415      -1.498472
      -0.128117       0.000000      -1.494519
      -0.132506       0.033836      -1.493753
      -0.145372       0.065367      -1.491507
      -0.165838       0.092443      -1.487935
      -0.192511       0.113219      -1.483280
      -0.223572       0.126279      -1.477860
      -0.256905       0.130734      -1.472042
      -0.290237       0.126279      -1.466225
      -0.321298       0.113219      -1.460804
      -0.347971       0.092443      -1.456149
      -0.368437       0.065367      -1.452577
      -0.381303       0.033836      -1.450332
      -0.385692      -0.000000      -1.449566
      -0.381303      -0.033836      -1.450332
      -0.368437      -0.065367      -1.452577
      -0.347971      -0.092443      -1.456149
      -0.321298      -0.113219      -1.460804
      -0.290237      -0.126279      -1.466225
      -0.256904      -0.130734      -1.472042
      -0.223572      -0.126279      -1.477860
      -0.192511      -0.113219      -1.483280
      -0.165838      -0.092443      -1.487935
      -0.145372      -0.065367      -1.491507
      -0.132506      -0.033836      -1.493753
VERTICES      288     576
 1        0
 1        1
 1        2
 1        3
 1        4
 1        5
 1        6
 1        7
 1        8
 1        9
 1       10
 1       11
 1       12
 1       13
 1       14
 1       15
 1       16
 1       17
 1       18
 1       19
 1       20
 1       21
 1       22
 1       23
 1       24
 1       25
 1       26
 1       27
 1       28
 1       29
 1       30
 1       31
 1       32
 1       33
 1       34
 1       35
 1       36
 1       37
 1       38
 1       39
 1       40
 1       41
 1       42
 1       43
 1       44
 1       45
 1       46
 1       47
 1       48
 1       49
 1       50
 1       51
 1       52
 1       53
 1       54
 1       55
 1       56
 1       57
 1       58
 1       59
 1       60
 1       61
 1       62
 1       63
 1       64
 1       65
 1       66
 1       67
 1       68
 1       69
 1       70
 1       71
 1       72
 1       73
 1       74
 1       75
 1       76
 1       77
 1       78
 1       79
 1       80
 1       81
 1       82
 1       83
 1       84
 1       85
 1       86
 1       87
 1       88
 1       89
 1       90
 1       91
 1       92
 1       93
 1       94
 1       95
 1       96
 1       97
 1       98
 1       99
 1      100
 1      101
 1      102
 1      103
 1      104
 1      105
 1      106
 1      107
 1      108
 1      109
 1      110
 1      111
 1      112
 1      113
 1      114
 1      115
 1      116
 1      117
 1      118
 1      119
 1      120
 1      121
 1      122
 1      123
 1      124
 1      125
 1      126
 1      127
 1      128
 1      129
 1      130
 1      131
 1      132
 1      133
 1      134
 1      135
 1      136
 1      137
 1      138
 1      139
 1      140
 1      141
 1      142
 1      143
 1      144
 1      145
 1      146
 1      147
 1      148
 1      149
 1      150
 1      151
 1      152
 1      153
 1      154
 1      155
 1      156
 1      157
 1      158
 1      159
 1      160
 1      161
 1      162
 1      163
 1      164
 1      165
 1      166
 1      167
 1      168
 1      169
 1      170
 1      171
 1      172
 1      173
 1      174
 1      175
 1      176
 1      177
 1      178
 1      179
 1      180
 1      181
 1      182
 1      183
 1      184
 1      185
 1      186
 1      187
 1      188
 1      189
 1      190
 1      191
 1      192
 1      193
 1      194
 1      195
 1      196
 1      197
 1      198
 1      199
 1      200
 1      201
 1      202
 1      203
 1      204
 1      205
 1      206
 1      207
 1      208
 1      209
 1      210
 1      211
 1      212
 1      213
 1      214
 1      215
 1      216
 1      217
 1      218
 1      219
 1      220
 1      221
 1      222
 1      223
 1      224
 1      225
 1      226
 1      227
 1      228
 1      229
 1      230
 1      231
 1      232
 1      233
 1      234
 1      235
 1      236
 1      237
 1      238
 1      239
 1      240
 1      241
 1      242
 1      243
 1      244
 1      245
 1      246
 1      247
 1      248
 1      249
 1      250
 1      251
 1      252
 1      253
 1      254
 1      255
 1      256
 1      257
 1      258
 1      259
 1      260
 1      261
 1      262
 1      263
 1      264
 1      265
 1      266
 1      267
 1      268
 1      269
 1      270
 1      271
 1      272
 1      273
 1      274
 1      275
 1      276
 1      277
 1      278
 1      279
 1      280
 1      281
 1      282
 1      283
 1      284
 1      285
 1      286
 1      287
POINT_DATA      288
SCALARS hemisphere int 1
LOOKUP_TABLE default
 1
 1
 1
 1
 1
 1
 1
 1
 1
 1
 1
 1
 1
 1
 1
 1
 1
 1
 1
 1
 1
 1
 1
 1
 1
 1
 1
 1
 1
 1
 1
 1
 1
 1
 1
 1
 1
 1
 1
 1
 1
 1
 1
 1
 1
 1
 1
 1
 1
 1
 1
 1
 1
 1
 1
 1
 1
 1
 1
 1
 1
 1
 1
 1
 1
 1
 1
 1
 1
 1
 1
 1
 1
 1
 1
 1
 1
 1
 1
 1
 1
 1
 1
 1
 1
 1
 1
 1
 1
 1
 1
 1
 1
 1
 1
 1
 1
 1
 1
 1
 1
 1
 1
 1
 1
 1
 1
 1
 1
 1
 1
 1
 1
 1
 1
 1
 1
 1
 1
 1
 1
 1
 1
 1
 1
 1
 1
 1
 1
 1
 1
 1
 1
 1
 1
 1
 1
 1
 1
 1
 1
 1
 1
 1
-1
-1
-1
-1
-1
-1
-1
-1
-1
-1
-1
-1
-1
-1
-1
-1
-1
-1
-1
-1
-1
-1
-1
-1
-1
-1
-1
-1
-1
-1
-1
-1
-1
-1
-1
-1
-1
-1
-1
-1
-1
-1
-1
-1
-1
-1
-1
-1
-1
-1
-1
-1
-1
-1
-1
-1
-1
-1
-1
-1
-1
-1
-1
-1
-1
-1
-1
-1
-1
-1
-1
-1
-1
-1
-1
-1
-1
-1
-1
-1
-1
-1
-1
-1
-1
-1
-1
-1
-1
-1
-1
-1
-1
-1
-1
-1
-1
-1
-1
-1
-1
-1
-1
-1
-1
-1
-1
-1
-1
-1
-1
-1
-1
-1
-1
-1
-1
-1
-1
-1
-1
-1
-1
-1
-1
-1
-1
-1
-1
-1
-1
-1
-1
-1
-1
-1
-1
-1
-1
-1
-1
-1
-1
-1
