<?xml version="1.0"?>
<VTKFile type="StructuredGrid" version="0.1" byte_order="LittleEndian" header_type="UInt32" compressor="vtkZLibDataCompressor">
  <StructuredGrid WholeExtent="0 60 0 20 0 20">
  <Piece Extent="0 60 0 20 0 20">
    <PointData Vectors="B_total">
      <DataArray type="Float32" Name="B_total" NumberOfComponents="3" format="ascii" RangeMin="0" RangeMax="60063.01064839855">
        -9.409169 -1.2351221 3.2525024 -9.73243 -1.269224 3.337654
        -10.065078 -1.3049569 3.4234145 -10.407391 -1.3425146 3.509534
        -10.75969 -1.3821193 3.5957317 -11.122346 -1.4240242 3.681693
        -11.495782 -1.4685184 3.7670636 -11.880486 -1.5159299 3.851444
        -12.277013 -1.5666307 3.9343824 -12.685998 -1.6210409 4.015367
        -13.108158 -1.6796353 4.0938163 -13.544298 -1.7429475 4.1690683
        -13.995317 -1.811578 4.240369 -14.462213 -1.8862004 4.306858
        -14.946071 -1.9675694 4.367557 -15.448075 -2.0565288 4.421355
        -15.969492 -2.1540225 4.4669924 -16.511658 -2.2611046 4.503054
        -17.075972 -2.3789523 4.5279536 -17.66387 -2.5088809 4.539931
        -18.276808 -2.652362 4.537045 -18.916224 -2.8110428 4.517178
        -19.583525 -2.986774 4.4780397 -20.280046 -3.1816387 4.4171734
        -21.007011 -3.3979912 4.331968 -21.765507 -3.6385028 4.2196655
        -22.556406 -3.9062073 4.0773807 -23.380318 -4.2045727 3.9020965
        -24.237474 -4.5375614 3.690689 -25.12759 -4.909707 3.439958
        -26.0497 -5.3262005 3.1466908 -27.001917 -5.7929645 2.8077772
        -27.981184 -6.316742 2.4203906 -28.982994 -6.905163 1.9822536
        -30.001118 -7.566787 1.4919697 -31.02736 -8.311079 0.94941247
        -32.05132 -9.148277 0.35611707 -33.060165 -10.089032 -0.28436548
        -34.038357 -11.14372 -0.96616125 -34.96728 -12.321228 -1.6808006
        -35.82482 -13.627063 -2.4168339 -36.585007 -15.060614 -3.1590924
        -37.218174 -16.61161 -3.8873506 -37.692463 -18.256111 -4.5742555
        -37.977444 -19.952728 -5.182795 -38.050655 -21.64038 -5.664145
        -37.906868 -23.239033 -5.9572344 -37.56857 -24.654896 -5.9914937
        -37.094772 -25.790424 -5.693461 -36.584534 -26.557991 -4.996593
        -0.09895079 -0.4025774 0.41599655 -0.08712554 -0.42721844 0.4033513
        -0.068905115 -0.44723225 0.3941946 -0.046482086 -0.46076965 0.38961744
        -0.022515297 -0.46708775 0.389925 0.00045728683 -0.4664564 0.39467144
        0.02050829 -0.45999146 0.40289092 0.036504745 -0.4492216 0.41337156
        0.048080444 -0.43575478 0.42493045 0.055467606 -0.42103148 0.43658367
        0.059244633 -0.40617037 0.44761768 -9.453005 -1.151272 3.250749
        -9.778296 -1.1827011 3.334546 -10.11318 -1.2156589 3.4188242
        -10.457963 -1.2503259 3.5033298 -10.813 -1.286909 3.587778
        -11.178694 -1.3256446 3.6718514 -11.555511 -1.3668016 3.75519
        -11.94398 -1.4106864 3.83739 -12.34471 -1.4576457 3.917994
        -12.758388 -1.5080721 3.9964836 -13.185792 -1.5624099 4.0722675
        -13.627796 -1.6211593 4.144673 -14.085376 -1.6848838 4.21293
        -14.55961 -1.7542175 4.2761602 -15.051682 -1.8298725 4.333362
        -15.562875 -1.912648 4.3833914 -16.09457 -2.0034406 4.424954
        -16.648235 -2.1032567 4.4565845 -17.22541 -2.213225 4.4766397
        -17.827696 -2.3346136 4.4832854 -18.456724 -2.4688506 4.4744945
        -19.114145 -2.617546 4.4480405 -19.801603 -2.7825227 4.4014997
        -20.520708 -2.965851 4.332253 -21.273003 -3.1698928 4.2374883
        -22.05994 -3.3973572 4.1141963 -22.882826 -3.6513567 3.9591813
        -23.742767 -3.935493 3.769036 -24.64057 -4.253941 3.5401492
        -25.576618 -4.611551 3.268714 -26.550697 -5.0139685 2.9507632
        -27.561773 -5.467768 2.5822504 -28.607737 -5.9805937 2.1591897
        -29.685114 -6.5613194 1.6778662 -30.788757 -7.220181 1.1350906
        -31.911518 -7.968878 0.5284956 -33.043854 -8.820549 -0.14318365
        -34.17332 -9.789528 -0.8798718 -35.283844 -10.890695 -1.6799005
        -36.354664 -12.138195 -2.539685 -37.359035 -13.543243 -3.45302
        -38.262806 -15.110765 -4.409631 -39.023697 -16.83477 -5.3925548
        -39.592323 -18.692703 -6.3741846 -39.916542 -20.639671 -7.3113947
        -39.950375 -22.604149 -8.141108 -39.667645 -24.487411 -8.778483
        -39.07837 -26.169163 -9.120335 -38.243385 -27.52066 -9.055262
        -37.281296 -28.424103 -8.479907 -36.36234 -28.793934 -7.317303
        -2.1682386 -2.0642643 0.019763947 -0.08837175 -0.46396255 0.34608603
        -0.057801723 -0.4815607 0.33946753 -0.025494099 -0.48959446 0.34058952
        0.00487566 -0.48858643 0.34855747 0.030638218 -0.4801817 0.36164117
        0.0504241 -0.4665718 0.37781835 0.06398678 -0.44992065 0.39521658
        0.071902275 -0.43209362 0.41236067 0.07516909 -0.4144721 0.42826143
        -9.492183 -1.0633562 3.2486076 -9.81932 -1.0918584 3.331181
        -10.156238 -1.121768 3.4141226 -10.50327 -1.1532507 3.4971752
        -10.860801 -1.186496 3.5800507 -11.229267 -1.2217208 3.6624274
        -11.609169 -1.2591721 3.7439432 -12.00108 -1.2991306 3.8241887
        -12.405652 -1.3419152 3.9027019 -12.823625 -1.3878871 3.9789572
        -13.255833 -1.4374553 4.052355 -13.703216 -1.4910811 4.1222115
        -14.166819 -1.5492857 4.1877437 -14.6478 -1.6126558 4.248054
        -15.147434 -1.6818526 4.302118 -15.667102 -1.757621 4.3487635
        -16.208296 -1.8407984 4.3866577 -16.77261 -1.9323287 4.4142914
        -17.361725 -2.033276 4.4299636 -17.977398 -2.144842 4.4317718
        -18.62145 -2.2683854 4.4176006 -19.295744 -2.4054508 4.385119
        -20.002167 -2.5577981 4.331771 -20.74261 -2.7274423 4.2547765
        -21.518963 -2.9167037 4.151116 -22.333067 -3.1282618 4.017536
        -23.186708 -3.365238 3.8505125 -24.08154 -3.6312768 3.6462362
        -25.019033 -3.930658 3.400586 -26.000345 -4.2684226 3.109109
        -27.026169 -4.6505265 2.7670212 -28.096537 -5.084024 2.3692422
        -29.210577 -5.577281 1.9104755 -30.366232 -6.140212 1.3853304
        -31.559942 -6.784544 0.7884675 -32.786255 -7.5240436 0.11474276
        -34.03727 -8.374672 -0.64070106 -35.301857 -9.354505 -1.4823841
        -36.56436 -10.483233 -2.4144197 -37.802776 -11.780935 -3.440206
        -38.986206 -13.265725 -4.5614567 -40.07203 -14.949877 -5.7759485
        -41.003616 -16.834076 -7.073304 -41.71032 -18.899979 -8.428482
        -42.11203 -21.101797 -9.793442 -42.13067 -23.35907 -11.088928
        -41.709373 -25.553677 -12.199862 -40.837418 -27.535126 -12.97871
        -39.574123 -29.136843 -13.260288 -38.062107 -30.202831 -12.887631
        -36.520405 -30.618778 -11.743054 -35.214653 -30.337437 -9.773651
        -0.11377811 -0.47366905 0.2841301 -0.07252979 -0.49666023 0.2744112
        -0.029351234 -0.5072746 0.2766819 0.010436058 -0.5063715 0.28925467
        0.043222427 -0.4962902 0.3091998 0.0674057 -0.47999573 0.33326316
        0.08302784 -0.46035194 0.35856128 0.09119606 -0.43967962 0.38296783
        0.09350395 -0.41961002 0.40514994 -9.526663 -0.9719706 3.2462187
        -9.855451 -0.9973249 3.3277037 -10.194189 -1.0239481 3.4094577
        -10.543237 -1.051989 3.491221 -10.903004 -1.0816184 3.572703
        -11.273954 -1.1130316 3.6535788 -11.656627 -1.1464506 3.7334826
        -12.05163 -1.1821284 3.812002 -12.459656 -1.2203525 3.8886693
        -12.881493 -1.2614489 3.9629533 -13.318029 -1.3057864 4.034247
        -13.770263 -1.353783 4.1018558 -14.239303 -1.4059106 4.1649837
        -14.726386 -1.4627023 4.2227173 -15.232864 -1.52476 4.27401
        -15.760215 -1.5927627 4.3176622 -16.310038 -1.667478 4.352308
        -16.88404 -1.7497728 4.376394 -17.484047 -1.8406284 4.3881664
        -18.111965 -1.9411582 4.385656 -18.769798 -2.0526283 4.3666654
        -19.459614 -2.1764855 4.328762 -20.183546 -2.3143888 4.2692637
        -20.943785 -2.4682505 4.185232 -21.742554 -2.6402915 4.073449
        -22.58211 -2.8330956 3.9304118 -23.464731 -3.0497007 3.7522752
        -24.392675 -3.2936912 3.5348253 -25.368116 -3.5693188 3.2734213
        -26.393078 -3.8816543 2.962942 -27.469288 -4.2367706 2.5977488
        -28.598024 -4.6419663 2.1716585 -29.779913 -5.106045 1.6779401
        -31.014675 -5.6396384 1.1093328 -32.300827 -6.255584 0.45802423
        -33.63528 -6.969316 -0.2844082 -35.01264 -7.799205 -1.127183
        -36.424152 -8.766726 -2.0805779 -37.85585 -9.896196 -3.15617
        -39.285755 -11.213747 -4.3667135 -40.679962 -12.745037 -5.7250304
        -41.987816 -14.511054 -7.2409763 -43.137383 -16.521461 -8.9153805
        -44.033447 -18.765274 -10.730261 -44.56144 -21.199484 -12.635578
        -44.601162 -23.737995 -14.535214 -44.052773 -26.24488 -16.27702
        -42.873146 -28.538021 -17.654627 -41.113903 -30.40822 -18.427765
        -38.9455 -31.654297 -18.362123 -36.651134 -32.1266 -17.280195
        -34.583836 -31.764206 -15.104958 -33.097145 -30.60968 -11.876863
        -0.09198284 -0.4999981 0.19413376 -0.035019875 -0.5146065 0.19763374
        0.016485214 -0.5149069 0.21631432 0.057736397 -0.50407887 0.24537754
        0.086956024 -0.48599148 0.27975607 0.10467529 -0.46422863 0.31520104
        0.11279011 -0.4415822 0.3487432 0.11367321 -0.41990757 0.3786614
        -9.556442 -0.87765956 3.2437544 -9.886677 -0.89967483 3.3242884
        -10.227012 -0.9228052 3.405007 -10.577827 -0.94718146 3.4856477
        -10.939556 -0.97295344 3.5659182 -11.312693 -1.0002925 3.64549
        -11.697802 -1.0293939 3.7239954 -12.095525 -1.0604801 3.801018
        -12.506594 -1.0938038 3.8760862 -12.931838 -1.1296521 3.9486632
        -13.372193 -1.1683505 4.018135 -13.828709 -1.2102674 4.0837984
        -14.302558 -1.2558203 4.1448455 -14.79504 -1.3054812 4.2003474
        -15.307585 -1.3597845 4.249238 -15.841757 -1.4193344 4.2902937
        -16.399248 -1.4848154 4.322116 -16.981884 -1.5570035 4.343114
        -17.591606 -1.6367801 4.351483 -18.23048 -1.725149 4.3451934
        -18.900671 -1.8232577 4.3219724 -19.604452 -1.9324226 4.279292
        -20.344194 -2.0541625 4.214352 -21.122362 -2.1902392 4.124064
        -21.94153 -2.342712 4.0050235 -22.804361 -2.5139928 3.853486
        -23.713634 -2.7069423 3.6653 -24.672209 -2.9249625 3.4358554
        -25.683002 -3.1721292 3.1599982 -26.748953 -3.4533534 2.8319468
        -27.872896 -3.7745852 2.4451962 -29.05749 -4.1430707 1.992427
        -30.30504 -4.567677 1.4654124 -31.617344 -5.059288 0.8548815
        -32.995422 -5.6312838 0.15032285 -34.439137 -6.300081 -0.66037315
        -35.946434 -7.0856676 -1.5914385 -37.512028 -8.012033 -2.6599505
        -39.125034 -9.107237 -3.8865495 -40.76519 -10.402725 -5.295738
        -42.39724 -11.931295 -6.914856 -43.96382 -13.722958 -8.770441
        -45.37786 -15.797719 -10.880255 -46.517414 -18.154705 -13.239531
        -47.227623 -20.75794 -15.801435 -47.33584 -23.520756 -18.454212
        -46.684994 -26.29428 -21.002737 -45.184845 -28.867878 -23.165821
        -42.869846 -30.989752 -24.602058 -39.940475 -32.41066 -24.968943
        -36.76082 -32.941902 -24.003326 -33.79862 -32.506744 -21.593466
        -31.522873 -31.161982 -17.808777 -29.932308 -28.731016 -12.713369
        -0.044124603 -0.5044899 0.10583687 0.021556854 -0.5080147 0.13172913
        0.07279396 -0.49839687 0.1719408 0.10771656 -0.48041534 0.21890831
        0.12762547 -0.458354 0.26656628 0.13545704 -0.43541145 0.31089735
        0.13458443 -0.41364145 0.3497815 -9.581538 -0.78092384 3.2413983
        -9.913008 -0.7994383 3.3211234 -10.254706 -0.8189006 3.4009616
        -10.607033 -0.839422 3.4806492 -10.970442 -0.8611299 3.559892
        -11.345448 -0.8841701 3.6383593 -11.732642 -0.90870875 3.7156806
        -12.132697 -0.93493515 3.7914371 -12.546376 -0.9630648 3.8651533
        -12.974545 -0.99334234 3.9362876 -13.41818 -1.0260457 4.004221
        -13.878378 -1.0614897 4.0682406 -14.356365 -1.1000316 4.1275296
        -14.853498 -1.1420761 4.1811457 -15.371276 -1.1880819 4.228005
        -15.911336 -1.2385689 4.2668624 -16.47546 -1.2941277 4.2962923
        -17.065573 -1.3554296 4.3146677 -17.68373 -1.4232391 4.320141
        -18.332127 -1.4984303 4.3106284 -19.01309 -1.5820059 4.283788
        -19.729074 -1.6751213 4.2370076 -20.48267 -1.7791163 4.1673794
        -21.276611 -1.8955523 4.0716796 -22.11379 -2.0262656 3.9463308
        -22.99726 -2.173419 3.7873673 -23.930275 -2.3395953 3.5903525
        -24.916292 -2.52789 3.350306 -25.958961 -2.7420397 3.0615902
        -27.062119 -2.9865878 2.7177892 -28.22974 -3.267093 2.3115606
        -29.465904 -3.5904026 1.8344762 -30.774704 -3.9649959 1.2768049
        -32.160168 -4.401429 0.62724316 -33.6261 -4.912874 -0.12753302
        -35.17574 -5.515774 -1.0035279 -36.81103 -6.2305374 -2.0204031
        -38.53111 -7.0822086 -3.2027633 -40.3295 -8.100874 -4.5815454
        -42.189346 -9.321391 -6.1949806 -44.07618 -10.781874 -8.088011
        -45.92801 -12.519879 -10.308331 -47.64409 -14.565264 -12.896658
        -49.07537 -16.928505 -15.868759 -50.022835 -19.584167 -19.187956
        -50.252525 -22.451435 -22.730934 -49.536232 -25.377254 -26.256207
        -47.72028 -28.132133 -29.39282 -44.80974 -30.430376 -31.67064
        -41.03471 -31.980745 -32.603886 -36.85579 -32.558514 -31.813065
        -32.883408 -32.07178 -29.138538 -29.731121 -30.590313 -24.689363
        -27.864819 -28.320747 -18.799236 -0.05906868 -0.46959877 0.008167267
        0.023111343 -0.4792862 0.041215897 0.08585739 -0.47402287 0.09358215
        0.12726116 -0.45923996 0.15449715 0.14962482 -0.43974686 0.21562004
        0.15721416 -0.41906214 0.27171326 0.15453625 -0.3993597 0.32022595
        -9.601978 -0.6822288 3.2393324 -9.9344635 -0.69710857 3.3183925
        -10.277287 -0.7127576 3.3975084 -10.630859 -0.7292662 3.4764152
        -10.995653 -0.74673814 3.5548158 -11.372203 -0.76529187 3.632379
        -11.76112 -0.7850626 3.7087321 -12.163101 -0.8062045 3.7834537
        -12.578938 -0.82889307 3.8560653 -13.009526 -0.85332775 3.926022
        -13.455878 -0.8797353 3.9926982 -13.919128 -0.9083728 4.0553765
        -14.400546 -0.9395326 4.11323 -14.90154 -0.9735459 4.1653056
        -15.423664 -1.010789 4.2105045 -15.968623 -1.0516891 4.247564
        -16.538273 -1.0967327 4.275034 -17.134619 -1.146473 4.2912574
        -17.75982 -1.2015435 4.2943516 -18.41619 -1.2626686 4.2821836
        -19.106184 -1.3306835 4.2523556 -19.832426 -1.4065533 4.202179
        -20.597694 -1.4914011 4.128655 -21.404963 -1.5865426 4.028442
        -22.257408 -1.6935316 3.897811 -23.158436 -1.8142066 3.7326028
        -24.111742 -1.9507763 3.5281272 -25.121319 -2.1059036 3.2790747
        -26.191496 -2.2828233 2.979373 -27.326962 -2.4854987 2.6220324
        -28.532776 -2.7188177 2.198945 -29.81438 -2.9888546 1.7006474
        -31.177624 -3.3032107 1.1160015 -32.62877 -3.671452 0.43175215
        -34.174454 -4.105671 -0.36814994 -35.82147 -4.621166 -1.303564
        -37.57606 -5.237237 -2.399618 -39.442368 -5.9779954 -3.6886456
        -41.41926 -6.873037 -5.2123976 -43.494743 -7.9575872 -7.0238895
        -45.6371 -9.271542 -9.187572 -47.78228 -10.856375 -11.775542
        -49.818478 -12.748644 -14.856417 -51.571365 -14.9686 -18.473188
        -52.79718 -17.502914 -22.607044 -53.19586 -20.282867 -27.129442
        -52.457844 -23.16333 -31.753384 -50.351933 -25.913551 -36.00847
        -46.841064 -28.234697 -39.273113 -42.181355 -29.81349 -40.88637
        -36.940533 -30.403538 -40.32282 -31.89391 -29.903252 -37.361713
        -27.823088 -28.39038 -32.161804 -25.308083 -26.093494 -25.197052
        -24.608646 -23.315672 -17.0885 0.017633438 -0.42421532 -0.045051575
        0.093242645 -0.42730808 0.018378258 0.14207268 -0.41976643 0.09271526
        0.16756439 -0.4065752 0.16697693 0.17539978 -0.3913479 0.23454952
        0.17133331 -0.37635183 0.29240084 -9.617792 -0.5820092 3.2377188
        -9.95107 -0.5931479 3.316261 -10.294771 -0.6048679 3.394815
        -10.649318 -0.6172378 3.473114 -11.015193 -0.63033634 3.5508606
        -11.392951 -0.64425325 3.627722 -11.783216 -0.6590915 3.7033231
        -12.186707 -0.67496806 3.7772417 -12.604234 -0.69201636 3.8489966
        -13.036718 -0.71038824 3.9180393 -13.4852 -0.73025626 3.9837413
        -13.950846 -0.7518166 4.0453787 -14.434958 -0.77529204 4.1021185
        -14.938986 -0.8009356 4.152998 -15.46453 -0.8290354 4.196908
        -16.013346 -0.8599184 4.232569 -16.587349 -0.8939579 4.2585135
        -17.188616 -0.9315795 4.273061 -17.819386 -0.97327065 4.2742977
        -18.48206 -1.0195915 4.2600536 -19.179213 -1.0711879 4.2278833
        -19.913597 -1.1288093 4.1750383 -20.688154 -1.1933306 4.098446
        -21.506054 -1.2657816 3.9946628 -22.370705 -1.347375 3.8598466
        -23.285818 -1.4395635 3.689669 -24.255455 -1.5440919 3.4792337
        -25.284067 -1.6630746 3.2229555 -26.376568 -1.7990942 2.9143994
        -27.538385 -1.9553316 2.5460901 -28.775522 -2.1357353 2.1092672
        -30.094637 -2.3452458 1.5935762 -31.503149 -2.5900924 0.9866548
        -33.009357 -2.8781843 0.27352965 -34.622524 -3.2196136 -0.56428564
        -36.352783 -3.6272862 -1.5501407 -38.21055 -4.1176815 -2.714192
        -40.204937 -4.711677 -4.0959935 -42.340424 -5.4353237 -5.7475805
        -44.610584 -6.3202677 -7.7363257 -46.98784 -7.4032903 -10.14613
        -49.40834 -8.724108 -13.074101 -51.75253 -10.320103 -16.618736
        -53.824696 -12.216424 -20.853937 -55.34009 -14.410209 -25.784632
        -55.934284 -16.849314 -31.283998 -55.214348 -19.410149 -37.0252
        -52.865128 -21.885242 -42.438816 -48.798565 -23.996086 -46.74343
        -43.290394 -25.443245 -49.08654 -37.016056 -25.987362 -48.7794
        -30.922842 -25.52874 -45.531654 -25.968483 -24.143488 -39.557632
        -22.84995 -22.054651 -31.487774 -21.854643 -19.554459 -22.137081
        0.0013103485 -0.34297848 -0.11314774 0.09074402 -0.35833168 -0.04281807
        0.14807892 -0.36218262 0.041665077 0.17779922 -0.35914612 0.12650871
        0.18696976 -0.35270262 0.20353317 0.18256664 -0.34509873 0.2691636
        -9.629004 -0.48067448 3.2366912 -9.96285 -0.48799285 3.314865
        -10.307176 -0.49569753 3.3930194 -10.662418 -0.50383455 3.4708865
        -11.029068 -0.5124566 3.5481675 -11.407689 -0.5216242 3.6245294
        -11.79892 -0.53140616 3.699596 -12.203489 -0.5418812 3.7729435
        -12.622228 -0.55313915 3.8440888 -13.056071 -0.56528217 3.9124815
        -13.50608 -0.5784264 3.9774902 -13.973443 -0.5927041 4.038388
        -14.459489 -0.6082657 4.0943346 -14.965696 -0.62528217 4.1443624
        -15.493699 -0.643948 4.187353 -16.045288 -0.66448516 4.2220173
        -16.622425 -0.68714625 4.246873 -17.227238 -0.71222067 4.2602215
        -17.862019 -0.74004006 4.2601275 -18.529247 -0.7709859 4.2443943
        -19.231575 -0.80549955 4.2105403 -19.97185 -0.8440939 4.155774
        -20.753143 -0.8873692 4.076967 -21.578764 -0.93603384 3.9706025
        -22.4523 -0.9909233 3.8327494 -23.37769 -1.0530418 3.658957
        -24.359268 -1.1235995 3.4441738 -25.401846 -1.204067 3.182608
        -26.510777 -1.2962463 2.8675492 -27.692064 -1.4023658 2.4911544
        -28.952444 -1.5252026 2.044165 -30.299526 -1.6682467 1.5155399
        -31.741987 -1.8359227 0.89196646 -33.289745 -2.0338767 0.15712309
        -34.954197 -2.2693608 -0.7094035 -36.748222 -2.551716 -1.733755
        -38.685715 -2.8929605 -2.9501522 -40.780083 -3.3084707 -4.4040666
        -43.040733 -3.8176389 -6.156067 -45.466423 -4.444344 -8.285638
        -48.033997 -5.2168355 -10.893387 -50.681152 -6.1663494 -14.098433
        -53.28373 -7.323499 -18.026306 -55.630177 -8.711039 -22.78019
        -57.402824 -10.331846 -28.389557 -58.182976 -12.152014 -34.734215
        -57.50439 -14.082198 -41.457287 -54.97464 -15.965425 -47.90422
        -50.455036 -17.584806 -53.14924 -44.233513 -18.702503 -56.161583
        -37.079224 -19.12604 -56.097317 -30.09386 -18.774546 -52.59905
        -24.393911 -17.70889 -45.933723 -20.779837 -16.108576 -36.879864
        -19.559898 -14.207056 -26.433388 -0.028520584 -0.24285793 -0.14838791
        0.07482529 -0.27262878 -0.07855415 0.14162827 -0.29072 0.009865761
        0.17704964 -0.30073643 0.10025787 0.18920898 -0.3056364 0.1828618
        0.18607616 -0.30753446 0.25334978 -9.635635 -0.37861404 3.2363482
        -9.969816 -0.3820597 3.3143046 -10.314515 -0.38569194 3.3922224
        -10.670172 -0.38953367 3.4698336 -11.037282 -0.39361113 3.5468392
        -11.416417 -0.3979544 3.622905 -11.808222 -0.4025979 3.697655
        -12.213436 -0.407581 3.7706633 -12.632895 -0.41294858 3.8414469
        -13.067551 -0.41875184 3.9094539 -13.518471 -0.42504913 3.9740503
        -13.98686 -0.43190685 4.0345063 -14.474061 -0.43940076 4.0899806
        -14.981573 -0.44761708 4.139501 -15.511045 -0.45665398 4.181943
        -16.064295 -0.46662354 4.2160106 -16.643309 -0.47765398 4.2402134
        -17.250244 -0.48989183 4.252843 -17.887434 -0.5035058 4.2519503
        -18.557394 -0.51869 4.23532 -19.26283 -0.53566945 4.2004514
        -20.006655 -0.5547063 4.144525 -20.792 -0.5761073 4.0643764
        -21.622274 -0.60023665 3.9564478 -22.501173 -0.62752175 3.8167496
        -23.432774 -0.65847963 3.6407576 -24.421585 -0.693733 3.4233239
        -25.472635 -0.73404014 3.1585276 -26.59156 -0.78033066 2.83949
        -27.784716 -0.83375585 2.4581366 -29.059307 -0.8957518 2.0048966
        -30.423553 -0.96812505 1.4683018 -31.886913 -1.0531682 0.83443546
        -33.46037 -1.153812 0.086125255 -35.15669 -1.2738234 -0.7982775
        -36.99055 -1.4180655 -1.8467067 -38.97816 -1.5928108 -3.0960126
        -41.135773 -1.8061014 -4.5955305 -43.47619 -2.068123 -6.4114475
        -46.001842 -2.3914766 -8.631306 -48.692856 -2.79116 -11.366954
        -51.488636 -3.2839272 -14.752584 -54.262764 -3.8864512 -18.932526
        -56.794144 -4.611641 -24.030949 -58.744026 -5.4623337 -30.095814
        -59.657692 -6.422241 -37.013927 -59.018696 -7.4455333 -44.41025
        -56.380203 -8.449426 -51.573174 -51.56595 -9.317256 -57.476196
        -44.869537 -9.9193325 -60.961407 -37.123844 -10.150412 -61.072784
        -29.537954 -9.966126 -57.403675 -23.339314 -9.398125 -50.25868
        -19.399824 -8.544233 -40.523018 -18.040428 -7.532025 -29.321747
        -6.844137 -2.3981774 -6.3862534 0.044252396 -0.18128157 -0.080142975
        0.12091446 -0.21374011 0.0038394928 0.16343498 -0.23754406 0.09292507
        0.18042374 -0.25470006 0.17579126 0.1804657 -0.26696694 0.24718285
        -9.637697 -0.2762033 3.2367496 -9.971983 -0.2757506 3.31464
        -10.316798 -0.27528256 3.3924854 -10.672585 -0.27479848 3.470018
        -11.039839 -0.2742979 3.5469384 -11.419135 -0.27378026 3.6229124
        -11.811121 -0.27324498 3.6975627 -12.216537 -0.27269158 3.7704644
        -12.636226 -0.27211964 3.841134 -13.071136 -0.2715286 3.909018
        -13.522346 -0.27091828 3.9734826 -13.991059 -0.27028835 4.0337977
        -14.478628 -0.26963872 4.08912 -14.986552 -0.26896945 4.138475
        -15.516493 -0.2682808 4.180738 -16.070272 -0.26757327 4.21461
        -16.649883 -0.26684776 4.2385983 -17.257496 -0.2661054 4.2509894
        -17.895454 -0.265348 4.2498302 -18.566288 -0.2645778 4.232901
        -19.272717 -0.2637977 4.197691 -20.017672 -0.2630116 4.141374
        -20.804317 -0.26222405 4.060772 -21.63608 -0.2614423 3.9523137
        -22.516697 -0.26067045 3.8119893 -23.45029 -0.2599178 3.6352506
        -24.441422 -0.25919336 3.416917 -25.495192 -0.2585068 3.151024
        -26.617329 -0.25786832 2.8306372 -27.814306 -0.25728688 2.4476066
        -29.093475 -0.25676876 1.9922566 -30.46326 -0.25631434 1.4529772
        -31.933382 -0.25591353 0.81565505 -33.515163 -0.2555364 0.06283218
        -35.221832 -0.25512448 -0.8275393 -37.068665 -0.25457054 -1.8839903
        -39.072636 -0.25369558 -3.1442397 -41.250957 -0.25221404 -4.6588964
        -43.61758 -0.24968405 -6.496014 -46.176178 -0.24545269 -8.745817
        -48.90804 -0.23859139 -11.523907 -51.75317 -0.22786713 -14.969511
        -54.584534 -0.21176496 -19.233316 -57.17798 -0.18874802 -24.446634
        -59.187862 -0.1577579 -30.663843 -60.147514 -0.1190384 -37.774403
        -59.523766 -0.07496199 -45.397644 -56.85135 -0.030353546 -52.803055
        -51.940887 0.0081581175 -58.930275 -45.08711 0.033462882 -62.578148
        -37.143467 0.0388678 -62.751938 -29.355839 0.021058202 -59.02748
        -22.98963 -0.014094263 -51.721687 -18.940735 -0.05933255 -41.755947
        -17.534464 -0.10728177 -30.299376 -9.387304 -0.099805534 -9.281969
        0.0013084412 -0.09858216 -0.045103073 0.086940765 -0.14205796 0.0259552
        0.13728142 -0.17755574 0.10642052 0.16063309 -0.20569858 0.18374538
        0.1656313 -0.22757098 0.25166464 -9.635196 -0.1738105 3.2379146
        -9.969354 -0.16946062 3.3158908 -10.314029 -0.16489346 3.3938286
        -10.669659 -0.16008498 3.47146 -11.036741 -0.15500781 3.5484855
        -11.415845 -0.14963084 3.624571 -11.807616 -0.14391856 3.6993403
        -12.212793 -0.13783062 3.772368 -12.632213 -0.13132118 3.8431706
        -13.066824 -0.12433826 3.9111953 -13.517694 -0.11682286 3.9758089
        -13.986031 -0.10870807 4.0362816 -14.473174 -0.09991801 4.091771
        -14.98062 -0.09036666 4.141305 -15.510019 -0.07995631 4.1837587
        -16.06319 -0.068575986 4.2178364 -16.642115 -0.056099318 4.2420473
        -17.248951 -0.042382147 4.254682 -17.886026 -0.027259486 4.253791
        -18.55586 -0.010541789 4.23716 -19.26115 0.007989986 4.202286
        -20.00481 0.028590098 4.14635 -20.789968 0.051555995 4.0661874
        -21.620028 0.077237085 3.95824 -22.498678 0.10605194 3.8185172
        -23.429993 0.1384989 3.6424975 -24.418467 0.1751819 3.4250326
        -25.469122 0.21683866 3.1602032 -26.58758 0.2643777 2.841135
        -27.78018 0.31893045 2.4597592 -29.054104 0.3819177 2.006514
        -30.417542 0.45514202 1.4699463 -31.879915 0.5409119 0.83616257
        -33.452152 0.64220774 0.08802676 -35.146957 0.76290447 -0.79605025
        -36.978912 0.90805984 -1.8439159 -38.96411 1.0842763 -3.0922847
        -41.118652 1.3001289 -4.590282 -43.455147 1.5666203 -6.4037776
        -45.975792 1.8975601 -8.619832 -48.66047 2.3096642 -11.349603
        -51.448402 2.821948 -14.726285 -54.213127 3.4538486 -18.892904
        -56.73398 4.221036 -23.972075 -58.673344 5.1281877 -30.010271
        -59.578785 6.1584353 -36.89352 -58.93731 7.2614946 -44.24788
        -56.306015 8.345761 -51.365795 -51.511154 9.282606 -57.228184
        -44.84509 9.9295025 -60.68625 -37.13497 10.169459 -60.7917
        -29.583168 9.953489 -57.13993 -23.410412 9.322232 -50.03097
        -19.484203 8.386658 -40.341213 -18.125998 7.28763 -29.186369
        -6.9400177 2.2020233 -6.259964 -0.048265457 -0.037721157 0.021347046
        0.04382515 -0.086016655 0.073179245 0.10143089 -0.12859273 0.13904953
        0.13173676 -0.16439486 0.20580387 0.14284325 -0.19352758 0.26631832
        -9.628127 -0.07180372 3.2398226 -9.961927 -0.063584566 3.3180368
        -10.306205 -0.054948673 3.3962307 -10.661395 -0.04584895 3.4741378
        -11.027988 -0.036231615 3.551459 -11.406548 -0.026035175 3.62786
        -11.797711 -0.015189689 3.7029662 -12.202208 -0.0036154762 3.7763515
        -12.620865 0.008778028 3.8475344 -13.054621 0.022093732 3.9159636
        -13.504534 0.0364485 3.9810066 -13.971791 0.051974833 4.0419364
        -14.457721 0.06882317 4.0979137 -14.9638 0.08716435 4.1479697
        -15.491658 0.10719225 4.1909842 -16.043089 0.12912723 4.225669
        -16.620049 0.15322036 4.25054 -17.224659 0.17975804 4.263899
        -17.859219 0.209068 4.2638097 -18.526196 0.24152704 4.248074
        -19.228235 0.27756977 4.21421 -19.96819 0.3177011 4.159426
        -20.749111 0.36251074 4.0805902 -21.574306 0.4126922 3.9741893
        -22.447355 0.46907032 3.836289 -23.372177 0.53262997 3.6624413
        -24.353096 0.60456026 3.4475956 -25.394896 0.68630874 3.1859634
        -26.502914 0.7796532 2.8708434 -27.683113 0.88679665 2.4944022
        -28.94219 1.0104947 2.0473967 -30.2877 1.1542231 1.5188185
        -31.728241 1.3224066 0.89539754 -33.273643 1.5207212 0.16088182
        -34.935177 1.7564914 -0.7050344 -36.725548 2.0392034 -1.7283256
        -38.65844 2.3811321 -2.942959 -40.746975 2.7980669 -4.39402
        -43.000225 3.3100462 -6.1414943 -45.416553 3.9418976 -8.263994
        -47.972366 4.7231975 -10.860861 -50.605125 5.686922 -14.049477
        -53.19068 6.865739 -17.953062 -55.518326 8.284375 -22.672155
        -57.272568 9.94686 -28.23373 -58.038834 11.818539 -34.51652
        -57.35694 13.806434 -41.165813 -54.841118 15.746943 -47.534386
        -50.356792 17.41458 -52.70923 -44.189804 18.562578 -55.675198
        -37.100014 18.99108 -55.60114 -30.176159 18.61693 -52.13307
        -24.522526 17.506165 -45.530315 -20.932676 15.847095 -36.55633
        -19.715696 13.88254 -26.191105 -0.22319603 0.03661537 0.11379242
        -0.09683609 -0.0065517426 0.10781288 -0.0023212433 -0.05245781 0.1379528
        0.060533524 -0.096221924 0.18594074 0.09718704 -0.1351223 0.23888874
        0.11458015 -0.16811705 0.28923655 -9.616481 0.029441895 3.2424128
        -9.949692 0.04147572 3.3210151 -10.293321 0.054120768 3.3996294
        -10.647789 0.06744668 3.4779885 -11.01358 0.08153315 3.5557947
        -11.391246 0.09647106 3.6327152 -11.781412 0.11236409 3.708375
        -12.184793 0.12933025 3.7823508 -12.602201 0.14750373 3.8541617
        -13.034555 0.1670369 3.9232585 -13.482895 0.18810286 3.9890122
        -13.948382 0.21089792 4.050699 -14.432322 0.23564482 4.107485
        -14.936159 0.2625963 4.1584053 -15.461492 0.2920391 4.202352
        -16.01007 0.32429907 4.2380443 -16.583813 0.35974702 4.264013
        -17.184784 0.39880553 4.278577 -17.815224 0.4419579 4.2798204
        -18.477526 0.48975837 4.265574 -19.17426 0.54284596 4.2333894
        -19.908165 0.60196126 4.1805186 -20.682178 0.66796756 4.1038857
        -21.499458 0.7418788 4.0000477 -22.36339 0.8248951 3.865163
        -23.277678 0.9184474 3.6949036 -24.24635 1.0242567 3.4843762
        -25.273834 1.1444111 3.2279987 -26.36501 1.2814631 2.9193487