# vtk DataFile Version 3.0
SM polar seed points transformed to GSW coordinates
ASCII
DATASET POLYDATA
POINTS      288 float
       0.713442       0.000000       1.319470
       0.687896       0.194114       1.318757
       0.613000       0.375000       1.316665
       0.493857       0.530330       1.313337
       0.338588       0.649519       1.309001
       0.157773       0.724444       1.303951
      -0.036266       0.750000       1.298532
      -0.230305       0.724444       1.293113
      -0.411120       0.649519       1.288063
      -0.566389       0.530330       1.283726
      -0.685532       0.375000       1.280399
      -0.760428       0.194114       1.278307
      -0.785974      -0.000000       1.277594
      -0.760428      -0.194114       1.278307
      -0.685532      -0.375000       1.280399
      -0.566389      -0.530330       1.283726
      -0.411120      -0.649519       1.288063
      -0.230305      -0.724444       1.293113
      -0.036266      -0.750000       1.298532
       0.157773      -0.724444       1.303951
       0.338588      -0.649519       1.309001
       0.493857      -0.530330       1.313337
       0.613000      -0.375000       1.316665
       0.687896      -0.194114       1.318757
       0.595728       0.000000       1.376629
       0.574135       0.164072       1.376027
       0.510830       0.316964       1.374259
       0.410127       0.448254       1.371446
       0.278887       0.548997       1.367781
       0.126056       0.612327       1.363512
      -0.037953       0.633927       1.358932
      -0.201961       0.612327       1.354351
      -0.354793       0.548997       1.350083
      -0.486032       0.448254       1.346418
      -0.586736       0.316964       1.343605
      -0.650041       0.164073       1.341837
      -0.671633      -0.000000       1.341234
      -0.650041      -0.164073       1.341837
      -0.586736      -0.316964       1.343605
      -0.486033      -0.448254       1.346418
      -0.354793      -0.548997       1.350083
      -0.201961      -0.612327       1.354351
      -0.037953      -0.633927       1.358932
       0.126056      -0.612327       1.363512
       0.278887      -0.548997       1.367781
       0.410127      -0.448254       1.371446
       0.510830      -0.316964       1.374259
       0.574135      -0.164073       1.376027
       0.473479       0.000000       1.423312
       0.456005       0.132782       1.422824
       0.404773       0.256515       1.421393
       0.323275       0.362767       1.419117
       0.217064       0.444297       1.416151
       0.093379       0.495549       1.412697
      -0.039351       0.513030       1.408990
      -0.172081       0.495549       1.405283
      -0.295766       0.444297       1.401828
      -0.401977       0.362767       1.398862
      -0.483475       0.256515       1.396586
      -0.534707       0.132782       1.395155
      -0.552181      -0.000000       1.394667
      -0.534707      -0.132782       1.395155
      -0.483475      -0.256515       1.396586
      -0.401977      -0.362767       1.398862
      -0.295766      -0.444297       1.401828
      -0.172081      -0.495549       1.405283
      -0.039351      -0.513030       1.408990
       0.093379      -0.495549       1.412697
       0.217064      -0.444297       1.416151
       0.323275      -0.362767       1.419117
       0.404773      -0.256515       1.421393
       0.456005      -0.132782       1.422824
       0.347628       0.000000       1.459162
       0.334404       0.100481       1.458793
       0.295635       0.194114       1.457710
       0.233963       0.274519       1.455988
       0.153589       0.336216       1.453743
       0.059992       0.375000       1.451129
      -0.040449       0.388229       1.448324
      -0.140891       0.375000       1.445519
      -0.234488       0.336216       1.442905
      -0.314862       0.274519       1.440660
      -0.376534       0.194114       1.438938
      -0.415303       0.100481       1.437855
      -0.428527      -0.000000       1.437486
      -0.415303      -0.100481       1.437855
      -0.376534      -0.194114       1.438938
      -0.314862      -0.274519       1.440660
      -0.234488      -0.336216       1.442905
      -0.140891      -0.375000       1.445519
      -0.040449      -0.388229       1.448324
       0.059992      -0.375000       1.451129
       0.153589      -0.336216       1.453743
       0.233963      -0.274519       1.455988
       0.295635      -0.194114       1.457710
       0.334404      -0.100481       1.458793
       0.219131       0.000000       1.483908
       0.210259       0.067415       1.483660
       0.184248       0.130236       1.482933
       0.142870       0.184182       1.481778
       0.088945       0.225576       1.480272
       0.026149       0.251597       1.478518
      -0.041240       0.260472       1.476636
      -0.108629       0.251597       1.474754
      -0.171426       0.225576       1.473000
      -0.225350       0.184182       1.471494
      -0.266728       0.130236       1.470338
      -0.292739       0.067415       1.469612
      -0.301611      -0.000000       1.469364
      -0.292739      -0.067415       1.469612
      -0.266728      -0.130236       1.470338
      -0.225350      -0.184182       1.471494
      -0.171425      -0.225576       1.473000
      -0.108629      -0.251597       1.474754
      -0.041240      -0.260472       1.476636
       0.026149      -0.251597       1.478518
       0.088945      -0.225576       1.480272
       0.142870      -0.184182       1.481778
       0.184248      -0.130236       1.482933
       0.210259      -0.067415       1.483660
       0.088966       0.000000       1.497359
       0.084513       0.033836       1.497235
       0.071458       0.065367       1.496870
       0.050690       0.092443       1.496290
       0.023624       0.113219       1.495535
      -0.007894       0.126279       1.494654
      -0.041717       0.130734       1.493710
      -0.075540       0.126279       1.492765
      -0.107058       0.113219       1.491885
      -0.134124       0.092443       1.491129
      -0.154892       0.065367       1.490549
      -0.167947       0.033836       1.490184
      -0.172400      -0.000000       1.490060
      -0.167947      -0.033836       1.490184
      -0.154892      -0.065367       1.490549
      -0.134124      -0.092443       1.491129
      -0.107058      -0.113219       1.491885
      -0.075540      -0.126279       1.492765
      -0.041717      -0.130734       1.493710
      -0.007894      -0.126279       1.494654
       0.023624      -0.113219       1.495535
       0.050690      -0.092443       1.496290
       0.071458      -0.065367       1.496870
       0.084513      -0.033836       1.497235
       0.785974       0.000000      -1.277594
       0.760428       0.194114      -1.278307
       0.685532       0.375000      -1.280399
       0.566389       0.530330      -1.283726
       0.411120       0.649519      -1.288063
       0.230305       0.724444      -1.293113
       0.036266       0.750000      -1.298532
      -0.157773       0.724444      -1.303951
      -0.338588       0.649519      -1.309001
      -0.493857       0.530330      -1.313337
      -0.613000       0.375000      -1.316665
      -0.687896       0.194114      -1.318757
      -0.713442      -0.000000      -1.319470
      -0.687896      -0.194114      -1.318757
      -0.613000      -0.375000      -1.316665
      -0.493857      -0.530330      -1.313337
      -0.338588      -0.649519      -1.309001
      -0.157773      -0.724444      -1.303951
       0.036266      -0.750000      -1.298532
       0.230305      -0.724444      -1.293113
       0.411120      -0.649519      -1.288063
       0.566389      -0.530330      -1.283726
       0.685532      -0.375000      -1.280399
       0.760428      -0.194114      -1.278307
       0.671633       0.000000      -1.341234
       0.650041       0.164072      -1.341837
       0.586736       0.316964      -1.343605
       0.486032       0.448254      -1.346418
       0.354793       0.548997      -1.350083
       0.201961       0.612327      -1.354351
       0.037953       0.633927      -1.358932
      -0.126056       0.612327      -1.363512
      -0.278887       0.548997      -1.367781
      -0.410127       0.448254      -1.371446
      -0.510830       0.316964      -1.374259
      -0.574135       0.164073      -1.376027
      -0.595728      -0.000000      -1.376629
      -0.574135      -0.164073      -1.376027
      -0.510830      -0.316964      -1.374259
      -0.410127      -0.448254      -1.371446
      -0.278887      -0.548997      -1.367781
      -0.126056      -0.612327      -1.363512
       0.037953      -0.633927      -1.358932
       0.201961      -0.612327      -1.354351
       0.354793      -0.548997      -1.350083
       0.486032      -0.448254      -1.346418
       0.586736      -0.316964      -1.343605
       0.650041      -0.164073      -1.341837
       0.552181       0.000000      -1.394667
       0.534707       0.132782      -1.395155
       0.483475       0.256515      -1.396586
       0.401977       0.362767      -1.398862
       0.295766       0.444297      -1.401828
       0.172081       0.495549      -1.405283
       0.039351       0.513030      -1.408990
      -0.093379       0.495549      -1.412697
      -0.217064       0.444297      -1.416151
      -0.323275       0.362767      -1.419117
      -0.404773       0.256515      -1.421393
      -0.456005       0.132782      -1.422824
      -0.473479      -0.000000      -1.423312
      -0.456005      -0.132782      -1.422824
      -0.404773      -0.256515      -1.421393
      -0.323275      -0.362767      -1.419117
      -0.217064      -0.444297      -1.416151
      -0.093379      -0.495549      -1.412697
       0.039351      -0.513030      -1.408990
       0.172081      -0.495549      -1.405283
       0.295766      -0.444297      -1.401828
       0.401977      -0.362767      -1.398862
       0.483475      -0.256515      -1.396586
       0.534707      -0.132782      -1.395155
       0.428527       0.000000      -1.437486
       0.415303       0.100481      -1.437855
       0.376534       0.194114      -1.438938
       0.314861       0.274519      -1.440660
       0.234488       0.336216      -1.442905
       0.140891       0.375000      -1.445519
       0.040449       0.388229      -1.448324
      -0.059992       0.375000      -1.451129
      -0.153589       0.336216      -1.453743
      -0.233963       0.274519      -1.455988
      -0.295635       0.194114      -1.457710
      -0.334404       0.100481      -1.458793
      -0.347628      -0.000000      -1.459162
      -0.334404      -0.100481      -1.458793
      -0.295635      -0.194114      -1.457710
      -0.233963      -0.274519      -1.455988
      -0.153589      -0.336216      -1.453743
      -0.059992      -0.375000      -1.451129
       0.040449      -0.388229      -1.448324
       0.140891      -0.375000      -1.445519
       0.234488      -0.336216      -1.442905
       0.314861      -0.274519      -1.440660
       0.376534      -0.194114      -1.438938
       0.415303      -0.100481      -1.437855
       0.301611       0.000000      -1.469364
       0.292739       0.067415      -1.469612
       0.266728       0.130236      -1.470338
       0.225350       0.184182      -1.471494
       0.171426       0.225576      -1.473000
       0.108629       0.251597      -1.474754
       0.041240       0.260472      -1.476636
      -0.026149       0.251597      -1.478518
      -0.088945       0.225576      -1.480272
      -0.142870       0.184182      -1.481778
      -0.184248       0.130236      -1.482933
      -0.210259       0.067415      -1.483660
      -0.219131      -0.000000      -1.483908
      -0.210259      -0.067415      -1.483660
      -0.184248      -0.130236      -1.482933
      -0.142870      -0.184182      -1.481778
      -0.088945      -0.225576      -1.480272
      -0.026149      -0.251597      -1.478518
       0.041240      -0.260472      -1.476636
       0.108629      -0.251597      -1.474754
       0.171426      -0.225576      -1.473000
       0.225350      -0.184182      -1.471494
       0.266728      -0.130236      -1.470338
       0.292739      -0.067415      -1.469612
       0.172400       0.000000      -1.490060
       0.167947       0.033836      -1.490184
       0.154892       0.065367      -1.490549
       0.134124       0.092443      -1.491129
       0.107058       0.113219      -1.491885
       0.075540       0.126279      -1.492765
       0.041717       0.130734      -1.493710
       0.007894       0.126279      -1.494654
      -0.023624       0.113219      -1.495535
      -0.050690       0.092443      -1.496290
      -0.071458       0.065367      -1.496870
      -0.084513       0.033836      -1.497235
      -0.088966      -0.000000      -1.497359
      -0.084513      -0.033836      -1.497235
      -0.071458      -0.065367      -1.496870
      -0.050690      -0.092443      -1.496290
      -0.023624      -0.113219      -1.495535
       0.007894      -0.126279      -1.494654
       0.041717      -0.130734      -1.493710
       0.075540      -0.126279      -1.492765
       0.107058      -0.113219      -1.491885
       0.134124      -0.092443      -1.491129
       0.154892      -0.065367      -1.490549
       0.167947      -0.033836      -1.490184
VERTICES      288     576
 1        0
 1        1
 1        2
 1        3
 1        4
 1        5
 1        6
 1        7
 1        8
 1        9
 1       10
 1       11
 1       12
 1       13
 1       14
 1       15
 1       16
 1       17
 1       18
 1       19
 1       20
 1       21
 1       22
 1       23
 1       24
 1       25
 1       26
 1       27
 1       28
 1       29
 1       30
 1       31
 1       32
 1       33
 1       34
 1       35
 1       36
 1       37
 1       38
 1       39
 1       40
 1       41
 1       42
 1       43
 1       44
 1       45
 1       46
 1       47
 1       48
 1       49
 1       50
 1       51
 1       52
 1       53
 1       54
 1       55
 1       56
 1       57
 1       58
 1       59
 1       60
 1       61
 1       62
 1       63
 1       64
 1       65
 1       66
 1       67
 1       68
 1       69
 1       70
 1       71
 1       72
 1       73
 1       74
 1       75
 1       76
 1       77
 1       78
 1       79
 1       80
 1       81
 1       82
 1       83
 1       84
 1       85
 1       86
 1       87
 1       88
 1       89
 1       90
 1       91
 1       92
 1       93
 1       94
 1       95
 1       96
 1       97
 1       98
 1       99
 1      100
 1      101
 1      102
 1      103
 1      104
 1      105
 1      106
 1      107
 1      108
 1      109
 1      110
 1      111
 1      112
 1      113
 1      114
 1      115
 1      116
 1      117
 1      118
 1      119
 1      120
 1      121
 1      122
 1      123
 1      124
 1      125
 1      126
 1      127
 1      128
 1      129
 1      130
 1      131
 1      132
 1      133
 1      134
 1      135
 1      136
 1      137
 1      138
 1      139
 1      140
 1      141
 1      142
 1      143
 1      144
 1      145
 1      146
 1      147
 1      148
 1      149
 1      150
 1      151
 1      152
 1      153
 1      154
 1      155
 1      156
 1      157
 1      158
 1      159
 1      160
 1      161
 1      162
 1      163
 1      164
 1      165
 1      166
 1      167
 1      168
 1      169
 1      170
 1      171
 1      172
 1      173
 1      174
 1      175
 1      176
 1      177
 1      178
 1      179
 1      180
 1      181
 1      182
 1      183
 1      184
 1      185
 1      186
 1      187
 1      188
 1      189
 1      190
 1      191
 1      192
 1      193
 1      194
 1      195
 1      196
 1      197
 1      198
 1      199
 1      200
 1      201
 1      202
 1      203
 1      204
 1      205
 1      206
 1      207
 1      208
 1      209
 1      210
 1      211
 1      212
 1      213
 1      214
 1      215
 1      216
 1      217
 1      218
 1      219
 1      220
 1      221
 1      222
 1      223
 1      224
 1      225
 1      226
 1      227
 1      228
 1      229
 1      230
 1      231
 1      232
 1      233
 1      234
 1      235
 1      236
 1      237
 1      238
 1      239
 1      240
 1      241
 1      242
 1      243
 1      244
 1      245
 1      246
 1      247
 1      248
 1      249
 1      250
 1      251
 1      252
 1      253
 1      254
 1      255
 1      256
 1      257
 1      258
 1      259
 1      260
 1      261
 1      262
 1      263
 1      264
 1      265
 1      266
 1      267
 1      268
 1      269
 1      270
 1      271
 1      272
 1      273
 1      274
 1      275
 1      276
 1      277
 1      278
 1      279
 1      280
 1      281
 1      282
 1      283
 1      284
 1      285
 1      286
 1      287
POINT_DATA      288
SCALARS hemisphere int 1
LOOKUP_TABLE default
 1
 1
 1
 1
 1
 1
 1
 1
 1
 1
 1
 1
 1
 1
 1
 1
 1
 1
 1
 1
 1
 1
 1
 1
 1
 1
 1
 1
 1
 1
 1
 1
 1
 1
 1
 1
 1
 1
 1
 1
 1
 1
 1
 1
 1
 1
 1
 1
 1
 1
 1
 1
 1
 1
 1
 1
 1
 1
 1
 1
 1
 1
 1
 1
 1
 1
 1
 1
 1
 1
 1
 1
 1
 1
 1
 1
 1
 1
 1
 1
 1
 1
 1
 1
 1
 1
 1
 1
 1
 1
 1
 1
 1
 1
 1
 1
 1
 1
 1
 1
 1
 1
 1
 1
 1
 1
 1
 1
 1
 1
 1
 1
 1
 1
 1
 1
 1
 1
 1
 1
 1
 1
 1
 1
 1
 1
 1
 1
 1
 1
 1
 1
 1
 1
 1
 1
 1
 1
 1
 1
 1
 1
 1
 1
-1
-1
-1
-1
-1
-1
-1
-1
-1
-1
-1
-1
-1
-1
-1
-1
-1
-1
-1
-1
-1
-1
-1
-1
-1
-1
-1
-1
-1
-1
-1
-1
-1
-1
-1
-1
-1
-1
-1
-1
-1
-1
-1
-1
-1
-1
-1
-1
-1
-1
-1
-1
-1
-1
-1
-1
-1
-1
-1
-1
-1
-1
-1
-1
-1
-1
-1
-1
-1
-1
-1
-1
-1
-1
-1
-1
-1
-1
-1
-1
-1
-1
-1
-1
-1
-1
-1
-1
-1
-1
-1
-1
-1
-1
-1
-1
-1
-1
-1
-1
-1
-1
-1
-1
-1
-1
-1
-1
-1
-1
-1
-1
-1
-1
-1
-1
-1
-1
-1
-1
-1
-1
-1
-1
-1
-1
-1
-1
-1
-1
-1
-1
-1
-1
-1
-1
-1
-1
-1
-1
-1
-1
-1
-1
