# vtk DataFile Version 3.0
SM polar seed points transformed to GSW coordinates
ASCII
DATASET POLYDATA
POINTS      288 float
       0.664928       0.000000       1.344571
       0.639426       0.194114       1.342928
       0.564655       0.375000       1.338110
       0.445713       0.530330       1.330447
       0.290704       0.649519       1.320461
       0.110193       0.724444       1.308831
      -0.083520       0.750000       1.296350
      -0.277233       0.724444       1.283870
      -0.457744       0.649519       1.272240
      -0.612753       0.530330       1.262254
      -0.731695       0.375000       1.254591
      -0.806465       0.194114       1.249773
      -0.831968      -0.000000       1.248130
      -0.806465      -0.194114       1.249773
      -0.731695      -0.375000       1.254591
      -0.612753      -0.530330       1.262254
      -0.457744      -0.649519       1.272240
      -0.277233      -0.724444       1.283870
      -0.083520      -0.750000       1.296350
       0.110193      -0.724444       1.308831
       0.290704      -0.649519       1.320461
       0.445713      -0.530330       1.330447
       0.564655      -0.375000       1.338110
       0.639425      -0.194114       1.342928
       0.545211       0.000000       1.397406
       0.523655       0.164072       1.396018
       0.460457       0.316964       1.391946
       0.359922       0.448254       1.385469
       0.228903       0.548997       1.377028
       0.076328       0.612327       1.367198
      -0.087405       0.633927       1.356649
      -0.251138       0.612327       1.346100
      -0.403713       0.548997       1.336270
      -0.534732       0.448254       1.327829
      -0.635266       0.316964       1.321352
      -0.698465       0.164073       1.317280
      -0.720021      -0.000000       1.315891
      -0.698465      -0.164073       1.317280
      -0.635266      -0.316964       1.321352
      -0.534732      -0.448254       1.327829
      -0.403713      -0.548997       1.336270
      -0.251138      -0.612327       1.346100
      -0.087405      -0.633927       1.356649
       0.076328      -0.612327       1.367198
       0.228903      -0.548997       1.377028
       0.359922      -0.448254       1.385469
       0.460457      -0.316964       1.391946
       0.523655      -0.164073       1.396018
       0.421344       0.000000       1.439607
       0.403899       0.132782       1.438483
       0.352754       0.256515       1.435188
       0.271392       0.362767       1.429946
       0.165360       0.444297       1.423115
       0.041883       0.495549       1.415160
      -0.090624       0.513030       1.406623
      -0.223132       0.495549       1.398086
      -0.346609       0.444297       1.390130
      -0.452641       0.362767       1.383299
      -0.534002       0.256515       1.378057
      -0.585148       0.132782       1.374762
      -0.602593      -0.000000       1.373638
      -0.585148      -0.132782       1.374762
      -0.534002      -0.256515       1.378057
      -0.452641      -0.362767       1.383299
      -0.346609      -0.444297       1.390130
      -0.223132      -0.495549       1.398086
      -0.090624      -0.513030       1.406623
       0.041883      -0.495549       1.415160
       0.165360      -0.444297       1.423115
       0.271392      -0.362767       1.429946
       0.352753      -0.256515       1.435188
       0.403899      -0.132782       1.438483
       0.294271       0.000000       1.470852
       0.281070       0.100481       1.470001
       0.242366       0.194114       1.467508
       0.180797       0.274519       1.463541
       0.100558       0.336216       1.458371
       0.007119       0.375000       1.452351
      -0.093154       0.388229       1.445891
      -0.193427       0.375000       1.439431
      -0.286867       0.336216       1.433411
      -0.367105       0.274519       1.428241
      -0.428675       0.194114       1.424274
      -0.467379       0.100481       1.421781
      -0.480580      -0.000000       1.420930
      -0.467379      -0.100481       1.421781
      -0.428675      -0.194114       1.424274
      -0.367105      -0.274519       1.428241
      -0.286867      -0.336216       1.433411
      -0.193427      -0.375000       1.439431
      -0.093154      -0.388229       1.445891
       0.007119      -0.375000       1.452351
       0.100558      -0.336216       1.458371
       0.180797      -0.274519       1.463541
       0.242366      -0.194114       1.467508
       0.281070      -0.100481       1.470001
       0.164958       0.000000       1.490902
       0.156101       0.067415       1.490331
       0.130134       0.130236       1.488658
       0.088825       0.184182       1.485997
       0.034991       0.225576       1.482529
      -0.027700       0.251597       1.478490
      -0.094975       0.260472       1.474155
      -0.162251       0.251597       1.469821
      -0.224942       0.225576       1.465782
      -0.278776       0.184182       1.462314
      -0.320084       0.130236       1.459652
      -0.346052       0.067415       1.457979
      -0.354909      -0.000000       1.457409
      -0.346052      -0.067415       1.457979
      -0.320084      -0.130236       1.459652
      -0.278776      -0.184182       1.462314
      -0.224942      -0.225576       1.465782
      -0.162251      -0.251597       1.469821
      -0.094975      -0.260472       1.474155
      -0.027700      -0.251597       1.478490
       0.034991      -0.225576       1.482529
       0.088825      -0.184182       1.485997
       0.130134      -0.130236       1.488658
       0.156101      -0.067415       1.490331
       0.034390       0.000000       1.499606
       0.029944       0.033836       1.499319
       0.016911       0.065367       1.498480
      -0.003822       0.092443       1.497144
      -0.030842       0.113219       1.495403
      -0.062307       0.126279       1.493376
      -0.096074       0.130734       1.491200
      -0.129840       0.126279       1.489025
      -0.161305       0.113219       1.486998
      -0.188325       0.092443       1.485257
      -0.209058       0.065367       1.483921
      -0.222091       0.033836       1.483081
      -0.226537      -0.000000       1.482795
      -0.222091      -0.033836       1.483081
      -0.209058      -0.065367       1.483921
      -0.188325      -0.092443       1.485257
      -0.161305      -0.113219       1.486998
      -0.129840      -0.126279       1.489025
      -0.096074      -0.130734       1.491200
      -0.062307      -0.126279       1.493376
      -0.030842      -0.113219       1.495403
      -0.003822      -0.092443       1.497144
       0.016911      -0.065367       1.498480
       0.029944      -0.033836       1.499319
       0.831968       0.000000      -1.248130
       0.806465       0.194114      -1.249773
       0.731695       0.375000      -1.254591
       0.612753       0.530330      -1.262254
       0.457744       0.649519      -1.272240
       0.277233       0.724444      -1.283870
       0.083520       0.750000      -1.296350
      -0.110193       0.724444      -1.308831
      -0.290704       0.649519      -1.320461
      -0.445713       0.530330      -1.330447
      -0.564655       0.375000      -1.338110
      -0.639425       0.194114      -1.342928
      -0.664928      -0.000000      -1.344571
      -0.639426      -0.194114      -1.342928
      -0.564655      -0.375000      -1.338110
      -0.445713      -0.530330      -1.330447
      -0.290704      -0.649519      -1.320461
      -0.110193      -0.724444      -1.308831
       0.083520      -0.750000      -1.296350
       0.277233      -0.724444      -1.283870
       0.457744      -0.649519      -1.272240
       0.612753      -0.530330      -1.262254
       0.731695      -0.375000      -1.254591
       0.806465      -0.194114      -1.249773
       0.720021       0.000000      -1.315891
       0.698465       0.164072      -1.317280
       0.635266       0.316964      -1.321352
       0.534732       0.448254      -1.327829
       0.403713       0.548997      -1.336270
       0.251138       0.612327      -1.346100
       0.087405       0.633927      -1.356649
      -0.076328       0.612327      -1.367198
      -0.228903       0.548997      -1.377028
      -0.359922       0.448254      -1.385469
      -0.460457       0.316964      -1.391946
      -0.523655       0.164073      -1.396018
      -0.545211      -0.000000      -1.397406
      -0.523655      -0.164073      -1.396018
      -0.460457      -0.316964      -1.391946
      -0.359922      -0.448254      -1.385469
      -0.228903      -0.548997      -1.377028
      -0.076328      -0.612327      -1.367198
       0.087405      -0.633927      -1.356649
       0.251138      -0.612327      -1.346100
       0.403713      -0.548997      -1.336270
       0.534732      -0.448254      -1.327829
       0.635266      -0.316964      -1.321352
       0.698465      -0.164073      -1.317280
       0.602593       0.000000      -1.373638
       0.585148       0.132782      -1.374762
       0.534002       0.256515      -1.378057
       0.452641       0.362767      -1.383299
       0.346609       0.444297      -1.390130
       0.223132       0.495549      -1.398086
       0.090624       0.513030      -1.406623
      -0.041883       0.495549      -1.415160
      -0.165360       0.444297      -1.423115
      -0.271392       0.362767      -1.429946
      -0.352754       0.256515      -1.435188
      -0.403899       0.132782      -1.438483
      -0.421344      -0.000000      -1.439607
      -0.403899      -0.132782      -1.438483
      -0.352754      -0.256515      -1.435188
      -0.271392      -0.362767      -1.429946
      -0.165360      -0.444297      -1.423115
      -0.041883      -0.495549      -1.415160
       0.090624      -0.513030      -1.406623
       0.223132      -0.495549      -1.398086
       0.346609      -0.444297      -1.390130
       0.452641      -0.362767      -1.383299
       0.534002      -0.256515      -1.378057
       0.585148      -0.132782      -1.374762
       0.480580       0.000000      -1.420930
       0.467379       0.100481      -1.421781
       0.428675       0.194114      -1.424274
       0.367105       0.274519      -1.428241
       0.286867       0.336216      -1.433411
       0.193427       0.375000      -1.439431
       0.093154       0.388229      -1.445891
      -0.007119       0.375000      -1.452351
      -0.100558       0.336216      -1.458371
      -0.180797       0.274519      -1.463541
      -0.242366       0.194114      -1.467508
      -0.281070       0.100481      -1.470001
      -0.294271      -0.000000      -1.470852
      -0.281070      -0.100481      -1.470001
      -0.242366      -0.194114      -1.467508
      -0.180797      -0.274519      -1.463541
      -0.100558      -0.336216      -1.458371
      -0.007119      -0.375000      -1.452351
       0.093154      -0.388229      -1.445891
       0.193427      -0.375000      -1.439431
       0.286867      -0.336216      -1.433411
       0.367105      -0.274519      -1.428241
       0.428675      -0.194114      -1.424274
       0.467378      -0.100481      -1.421781
       0.354909       0.000000      -1.457409
       0.346052       0.067415      -1.457979
       0.320084       0.130236      -1.459652
       0.278776       0.184182      -1.462314
       0.224942       0.225576      -1.465782
       0.162251       0.251597      -1.469821
       0.094975       0.260472      -1.474155
       0.027700       0.251597      -1.478490
      -0.034991       0.225576      -1.482529
      -0.088825       0.184182      -1.485997
      -0.130134       0.130236      -1.488658
      -0.156101       0.067415      -1.490331
      -0.164958      -0.000000      -1.490902
      -0.156101      -0.067415      -1.490331
      -0.130134      -0.130236      -1.488658
      -0.088825      -0.184182      -1.485997
      -0.034991      -0.225576      -1.482529
       0.027700      -0.251597      -1.478490
       0.094975      -0.260472      -1.474155
       0.162251      -0.251597      -1.469821
       0.224942      -0.225576      -1.465782
       0.278776      -0.184182      -1.462314
       0.320084      -0.130236      -1.459652
       0.346052      -0.067415      -1.457979
       0.226537       0.000000      -1.482795
       0.222091       0.033836      -1.483081
       0.209058       0.065367      -1.483921
       0.188325       0.092443      -1.485257
       0.161305       0.113219      -1.486998
       0.129840       0.126279      -1.489025
       0.096074       0.130734      -1.491200
       0.062307       0.126279      -1.493376
       0.030842       0.113219      -1.495403
       0.003822       0.092443      -1.497144
      -0.016911       0.065367      -1.498480
      -0.029944       0.033836      -1.499319
      -0.034390      -0.000000      -1.499606
      -0.029944      -0.033836      -1.499319
      -0.016911      -0.065367      -1.498480
       0.003822      -0.092443      -1.497144
       0.030842      -0.113219      -1.495403
       0.062307      -0.126279      -1.493376
       0.096074      -0.130734      -1.491200
       0.129840      -0.126279      -1.489025
       0.161305      -0.113219      -1.486998
       0.188325      -0.092443      -1.485257
       0.209058      -0.065367      -1.483921
       0.222091      -0.033836      -1.483081
VERTICES      288     576
 1        0
 1        1
 1        2
 1        3
 1        4
 1        5
 1        6
 1        7
 1        8
 1        9
 1       10
 1       11
 1       12
 1       13
 1       14
 1       15
 1       16
 1       17
 1       18
 1       19
 1       20
 1       21
 1       22
 1       23
 1       24
 1       25
 1       26
 1       27
 1       28
 1       29
 1       30
 1       31
 1       32
 1       33
 1       34
 1       35
 1       36
 1       37
 1       38
 1       39
 1       40
 1       41
 1       42
 1       43
 1       44
 1       45
 1       46
 1       47
 1       48
 1       49
 1       50
 1       51
 1       52
 1       53
 1       54
 1       55
 1       56
 1       57
 1       58
 1       59
 1       60
 1       61
 1       62
 1       63
 1       64
 1       65
 1       66
 1       67
 1       68
 1       69
 1       70
 1       71
 1       72
 1       73
 1       74
 1       75
 1       76
 1       77
 1       78
 1       79
 1       80
 1       81
 1       82
 1       83
 1       84
 1       85
 1       86
 1       87
 1       88
 1       89
 1       90
 1       91
 1       92
 1       93
 1       94
 1       95
 1       96
 1       97
 1       98
 1       99
 1      100
 1      101
 1      102
 1      103
 1      104
 1      105
 1      106
 1      107
 1      108
 1      109
 1      110
 1      111
 1      112
 1      113
 1      114
 1      115
 1      116
 1      117
 1      118
 1      119
 1      120
 1      121
 1      122
 1      123
 1      124
 1      125
 1      126
 1      127
 1      128
 1      129
 1      130
 1      131
 1      132
 1      133
 1      134
 1      135
 1      136
 1      137
 1      138
 1      139
 1      140
 1      141
 1      142
 1      143
 1      144
 1      145
 1      146
 1      147
 1      148
 1      149
 1      150
 1      151
 1      152
 1      153
 1      154
 1      155
 1      156
 1      157
 1      158
 1      159
 1      160
 1      161
 1      162
 1      163
 1      164
 1      165
 1      166
 1      167
 1      168
 1      169
 1      170
 1      171
 1      172
 1      173
 1      174
 1      175
 1      176
 1      177
 1      178
 1      179
 1      180
 1      181
 1      182
 1      183
 1      184
 1      185
 1      186
 1      187
 1      188
 1      189
 1      190
 1      191
 1      192
 1      193
 1      194
 1      195
 1      196
 1      197
 1      198
 1      199
 1      200
 1      201
 1      202
 1      203
 1      204
 1      205
 1      206
 1      207
 1      208
 1      209
 1      210
 1      211
 1      212
 1      213
 1      214
 1      215
 1      216
 1      217
 1      218
 1      219
 1      220
 1      221
 1      222
 1      223
 1      224
 1      225
 1      226
 1      227
 1      228
 1      229
 1      230
 1      231
 1      232
 1      233
 1      234
 1      235
 1      236
 1      237
 1      238
 1      239
 1      240
 1      241
 1      242
 1      243
 1      244
 1      245
 1      246
 1      247
 1      248
 1      249
 1      250
 1      251
 1      252
 1      253
 1      254
 1      255
 1      256
 1      257
 1      258
 1      259
 1      260
 1      261
 1      262
 1      263
 1      264
 1      265
 1      266
 1      267
 1      268
 1      269
 1      270
 1      271
 1      272
 1      273
 1      274
 1      275
 1      276
 1      277
 1      278
 1      279
 1      280
 1      281
 1      282
 1      283
 1      284
 1      285
 1      286
 1      287
POINT_DATA      288
SCALARS hemisphere int 1
LOOKUP_TABLE default
 1
 1
 1
 1
 1
 1
 1
 1
 1
 1
 1
 1
 1
 1
 1
 1
 1
 1
 1
 1
 1
 1
 1
 1
 1
 1
 1
 1
 1
 1
 1
 1
 1
 1
 1
 1
 1
 1
 1
 1
 1
 1
 1
 1
 1
 1
 1
 1
 1
 1
 1
 1
 1
 1
 1
 1
 1
 1
 1
 1
 1
 1
 1
 1
 1
 1
 1
 1
 1
 1
 1
 1
 1
 1
 1
 1
 1
 1
 1
 1
 1
 1
 1
 1
 1
 1
 1
 1
 1
 1
 1
 1
 1
 1
 1
 1
 1
 1
 1
 1
 1
 1
 1
 1
 1
 1
 1
 1
 1
 1
 1
 1
 1
 1
 1
 1
 1
 1
 1
 1
 1
 1
 1
 1
 1
 1
 1
 1
 1
 1
 1
 1
 1
 1
 1
 1
 1
 1
 1
 1
 1
 1
 1
 1
-1
-1
-1
-1
-1
-1
-1
-1
-1
-1
-1
-1
-1
-1
-1
-1
-1
-1
-1
-1
-1
-1
-1
-1
-1
-1
-1
-1
-1
-1
-1
-1
-1
-1
-1
-1
-1
-1
-1
-1
-1
-1
-1
-1
-1
-1
-1
-1
-1
-1
-1
-1
-1
-1
-1
-1
-1
-1
-1
-1
-1
-1
-1
-1
-1
-1
-1
-1
-1
-1
-1
-1
-1
-1
-1
-1
-1
-1
-1
-1
-1
-1
-1
-1
-1
-1
-1
-1
-1
-1
-1
-1
-1
-1
-1
-1
-1
-1
-1
-1
-1
-1
-1
-1
-1
-1
-1
-1
-1
-1
-1
-1
-1
-1
-1
-1
-1
-1
-1
-1
-1
-1
-1
-1
-1
-1
-1
-1
-1
-1
-1
-1
-1
-1
-1
-1
-1
-1
-1
-1
-1
-1
-1
-1
