# vtk DataFile Version 3.0
SM polar seed points transformed to GSW coordinates
ASCII
DATASET POLYDATA
POINTS      288 float
       0.612258       0.000000       1.369357
       0.586838       0.194114       1.366726
       0.512311       0.375000       1.359012
       0.393756       0.530330       1.346739
       0.239251       0.649519       1.330746
       0.059327       0.724444       1.312121
      -0.133755       0.750000       1.292134
      -0.326838       0.724444       1.272147
      -0.506762       0.649519       1.253522
      -0.661267       0.530330       1.237528
      -0.779822       0.375000       1.225256
      -0.854349       0.194114       1.217541
      -0.879769      -0.000000       1.214910
      -0.854349      -0.194114       1.217541
      -0.779822      -0.375000       1.225256
      -0.661267      -0.530330       1.237528
      -0.506762      -0.649519       1.253522
      -0.326838      -0.724444       1.272147
      -0.133755      -0.750000       1.292134
       0.059327      -0.724444       1.312121
       0.239251      -0.649519       1.330746
       0.393756      -0.530330       1.346739
       0.512311      -0.375000       1.359011
       0.586838      -0.194114       1.366726
       0.490581       0.000000       1.417508
       0.469095       0.164072       1.415284
       0.406102       0.316964       1.408764
       0.305895       0.448254       1.398391
       0.175302       0.548997       1.384872
       0.023224       0.612327       1.369130
      -0.139977       0.633927       1.352236
      -0.303177       0.612327       1.335342
      -0.455256       0.548997       1.319600
      -0.585849       0.448254       1.306082
      -0.686056       0.316964       1.295709
      -0.749049       0.164073       1.289188
      -0.770535      -0.000000       1.286964
      -0.749049      -0.164073       1.289188
      -0.686056      -0.316964       1.295709
      -0.585849      -0.448254       1.306082
      -0.455256      -0.548997       1.319600
      -0.303177      -0.612327       1.335342
      -0.139977      -0.633927       1.352236
       0.023223      -0.612327       1.369130
       0.175302      -0.548997       1.384872
       0.305895      -0.448254       1.398391
       0.406102      -0.316964       1.408764
       0.469095      -0.164073       1.415284
       0.365170       0.000000       1.454871
       0.347782       0.132782       1.453071
       0.296803       0.256515       1.447794
       0.215706       0.362767       1.439400
       0.110019       0.444297       1.428459
      -0.013057       0.495549       1.415719
      -0.145133       0.513030       1.402047
      -0.277209       0.495549       1.388375
      -0.400285       0.444297       1.375635
      -0.505972       0.362767       1.364695
      -0.587069       0.256515       1.356300
      -0.638048       0.132782       1.351023
      -0.655437      -0.000000       1.349223
      -0.638048      -0.132782       1.351023
      -0.587069      -0.256515       1.356300
      -0.505972      -0.362767       1.364695
      -0.400285      -0.444297       1.375635
      -0.277209      -0.495549       1.388375
      -0.145133      -0.513030       1.402047
      -0.013057      -0.495549       1.415719
       0.110019      -0.444297       1.428459
       0.215706      -0.362767       1.439400
       0.296803      -0.256515       1.447794
       0.347782      -0.132782       1.453071
       0.236980       0.000000       1.481162
       0.223822       0.100481       1.479800
       0.185244       0.194114       1.475806
       0.123875       0.274519       1.469454
       0.043898       0.336216       1.461175
      -0.049238       0.375000       1.451534
      -0.149185       0.388229       1.441188
      -0.249132       0.375000       1.430842
      -0.342267       0.336216       1.421201
      -0.422245       0.274519       1.412922
      -0.483614       0.194114       1.406569
      -0.522192       0.100481       1.402576
      -0.535350      -0.000000       1.401214
      -0.522192      -0.100481       1.402576
      -0.483614      -0.194114       1.406569
      -0.422245      -0.274519       1.412922
      -0.342267      -0.336216       1.421201
      -0.249132      -0.375000       1.430842
      -0.149185      -0.388229       1.441188
      -0.049238      -0.375000       1.451534
       0.043898      -0.336216       1.461175
       0.123875      -0.274519       1.469454
       0.185244      -0.194114       1.475806
       0.223822      -0.100481       1.479800
       0.106987       0.000000       1.496180
       0.098159       0.067415       1.495266
       0.072276       0.130236       1.492587
       0.031102       0.184182       1.488325
      -0.022557       0.225576       1.482770
      -0.085044       0.251597       1.476302
      -0.152101       0.260472       1.469360
      -0.219158       0.251597       1.462419
      -0.281645       0.225576       1.455950
      -0.335304       0.184182       1.450396
      -0.376478       0.130236       1.446134
      -0.402361       0.067415       1.443455
      -0.411189      -0.000000       1.442541
      -0.402361      -0.067415       1.443455
      -0.376478      -0.130236       1.446134
      -0.335304      -0.184182       1.450396
      -0.281645      -0.225576       1.455950
      -0.219158      -0.251597       1.462419
      -0.152101      -0.260472       1.469360
      -0.085044      -0.251597       1.476302
      -0.022557      -0.225576       1.482770
       0.031102      -0.184182       1.488325
       0.072276      -0.130236       1.492587
       0.098159      -0.067415       1.495266
      -0.023821       0.000000       1.499811
      -0.028252       0.033836       1.499352
      -0.041243       0.065367       1.498007
      -0.061908       0.092443       1.495868
      -0.088840       0.113219       1.493080
      -0.120203       0.126279       1.489834
      -0.153860       0.130734       1.486350
      -0.187516       0.126279       1.482866
      -0.218879       0.113219       1.479619
      -0.245811       0.092443       1.476831
      -0.266477       0.065367       1.474692
      -0.279468       0.033836       1.473348
      -0.283899      -0.000000       1.472889
      -0.279468      -0.033836       1.473348
      -0.266477      -0.065367       1.474692
      -0.245811      -0.092443       1.476831
      -0.218879      -0.113219       1.479619
      -0.187516      -0.126279       1.482866
      -0.153860      -0.130734       1.486350
      -0.120203      -0.126279       1.489834
      -0.088840      -0.113219       1.493080
      -0.061908      -0.092443       1.495868
      -0.041243      -0.065367       1.498007
      -0.028252      -0.033836       1.499352
       0.879769       0.000000      -1.214910
       0.854349       0.194114      -1.217541
       0.779822       0.375000      -1.225256
       0.661267       0.530330      -1.237528
       0.506762       0.649519      -1.253522
       0.326838       0.724444      -1.272147
       0.133755       0.750000      -1.292134
      -0.059327       0.724444      -1.312121
      -0.239251       0.649519      -1.330746
      -0.393756       0.530330      -1.346739
      -0.512311       0.375000      -1.359012
      -0.586838       0.194114      -1.366726
      -0.612258      -0.000000      -1.369357
      -0.586838      -0.194114      -1.366726
      -0.512311      -0.375000      -1.359012
      -0.393756      -0.530330      -1.346739
      -0.239251      -0.649519      -1.330746
      -0.059327      -0.724444      -1.312121
       0.133755      -0.750000      -1.292134
       0.326838      -0.724444      -1.272147
       0.506762      -0.649519      -1.253522
       0.661267      -0.530330      -1.237528
       0.779822      -0.375000      -1.225256
       0.854349      -0.194114      -1.217541
       0.770535       0.000000      -1.286964
       0.749049       0.164072      -1.289188
       0.686056       0.316964      -1.295709
       0.585849       0.448254      -1.306082
       0.455256       0.548997      -1.319600
       0.303177       0.612327      -1.335342
       0.139977       0.633927      -1.352236
      -0.023224       0.612327      -1.369130
      -0.175302       0.548997      -1.384872
      -0.305895       0.448254      -1.398391
      -0.406102       0.316964      -1.408764
      -0.469095       0.164073      -1.415284
      -0.490581      -0.000000      -1.417508
      -0.469095      -0.164073      -1.415284
      -0.406102      -0.316964      -1.408764
      -0.305895      -0.448254      -1.398391
      -0.175302      -0.548997      -1.384872
      -0.023223      -0.612327      -1.369130
       0.139977      -0.633927      -1.352236
       0.303177      -0.612327      -1.335342
       0.455256      -0.548997      -1.319600
       0.585849      -0.448254      -1.306082
       0.686056      -0.316964      -1.295709
       0.749049      -0.164073      -1.289188
       0.655437       0.000000      -1.349223
       0.638048       0.132782      -1.351023
       0.587069       0.256515      -1.356300
       0.505972       0.362767      -1.364695
       0.400285       0.444297      -1.375635
       0.277209       0.495549      -1.388375
       0.145133       0.513030      -1.402047
       0.013057       0.495549      -1.415719
      -0.110019       0.444297      -1.428459
      -0.215706       0.362767      -1.439400
      -0.296803       0.256515      -1.447794
      -0.347782       0.132782      -1.453071
      -0.365170      -0.000000      -1.454871
      -0.347782      -0.132782      -1.453071
      -0.296803      -0.256515      -1.447794
      -0.215706      -0.362767      -1.439400
      -0.110019      -0.444297      -1.428459
       0.013057      -0.495549      -1.415719
       0.145133      -0.513030      -1.402047
       0.277209      -0.495549      -1.388375
       0.400285      -0.444297      -1.375635
       0.505972      -0.362767      -1.364695
       0.587069      -0.256515      -1.356300
       0.638048      -0.132782      -1.351023
       0.535350       0.000000      -1.401214
       0.522192       0.100481      -1.402576
       0.483614       0.194114      -1.406569
       0.422245       0.274519      -1.412922
       0.342267       0.336216      -1.421201
       0.249132       0.375000      -1.430842
       0.149185       0.388229      -1.441188
       0.049238       0.375000      -1.451534
      -0.043898       0.336216      -1.461175
      -0.123875       0.274519      -1.469454
      -0.185244       0.194114      -1.475806
      -0.223822       0.100481      -1.479800
      -0.236980      -0.000000      -1.481162
      -0.223822      -0.100481      -1.479800
      -0.185244      -0.194114      -1.475806
      -0.123875      -0.274519      -1.469454
      -0.043898      -0.336216      -1.461175
       0.049238      -0.375000      -1.451534
       0.149185      -0.388229      -1.441188
       0.249132      -0.375000      -1.430842
       0.342267      -0.336216      -1.421201
       0.422245      -0.274519      -1.412922
       0.483614      -0.194114      -1.406569
       0.522192      -0.100481      -1.402576
       0.411189       0.000000      -1.442541
       0.402361       0.067415      -1.443455
       0.376478       0.130236      -1.446134
       0.335304       0.184182      -1.450396
       0.281645       0.225576      -1.455950
       0.219158       0.251597      -1.462419
       0.152101       0.260472      -1.469360
       0.085044       0.251597      -1.476302
       0.022557       0.225576      -1.482770
      -0.031102       0.184182      -1.488325
      -0.072276       0.130236      -1.492587
      -0.098159       0.067415      -1.495266
      -0.106987      -0.000000      -1.496180
      -0.098159      -0.067415      -1.495266
      -0.072276      -0.130236      -1.492587
      -0.031102      -0.184182      -1.488325
       0.022557      -0.225576      -1.482770
       0.085044      -0.251597      -1.476302
       0.152101      -0.260472      -1.469360
       0.219158      -0.251597      -1.462419
       0.281645      -0.225576      -1.455950
       0.335304      -0.184182      -1.450396
       0.376478      -0.130236      -1.446134
       0.402361      -0.067415      -1.443455
       0.283899       0.000000      -1.472889
       0.279468       0.033836      -1.473348
       0.266477       0.065367      -1.474692
       0.245811       0.092443      -1.476831
       0.218879       0.113219      -1.479619
       0.187516       0.126279      -1.482866
       0.153860       0.130734      -1.486350
       0.120203       0.126279      -1.489834
       0.088840       0.113219      -1.493080
       0.061908       0.092443      -1.495868
       0.041243       0.065367      -1.498007
       0.028252       0.033836      -1.499352
       0.023821      -0.000000      -1.499811
       0.028252      -0.033836      -1.499352
       0.041243      -0.065367      -1.498007
       0.061908      -0.092443      -1.495868
       0.088840      -0.113219      -1.493080
       0.120203      -0.126279      -1.489834
       0.153860      -0.130734      -1.486350
       0.187516      -0.126279      -1.482866
       0.218879      -0.113219      -1.479619
       0.245811      -0.092443      -1.476831
       0.266477      -0.065367      -1.474692
       0.279468      -0.033836      -1.473348
VERTICES      288     576
 1        0
 1        1
 1        2
 1        3
 1        4
 1        5
 1        6
 1        7
 1        8
 1        9
 1       10
 1       11
 1       12
 1       13
 1       14
 1       15
 1       16
 1       17
 1       18
 1       19
 1       20
 1       21
 1       22
 1       23
 1       24
 1       25
 1       26
 1       27
 1       28
 1       29
 1       30
 1       31
 1       32
 1       33
 1       34
 1       35
 1       36
 1       37
 1       38
 1       39
 1       40
 1       41
 1       42
 1       43
 1       44
 1       45
 1       46
 1       47
 1       48
 1       49
 1       50
 1       51
 1       52
 1       53
 1       54
 1       55
 1       56
 1       57
 1       58
 1       59
 1       60
 1       61
 1       62
 1       63
 1       64
 1       65
 1       66
 1       67
 1       68
 1       69
 1       70
 1       71
 1       72
 1       73
 1       74
 1       75
 1       76
 1       77
 1       78
 1       79
 1       80
 1       81
 1       82
 1       83
 1       84
 1       85
 1       86
 1       87
 1       88
 1       89
 1       90
 1       91
 1       92
 1       93
 1       94
 1       95
 1       96
 1       97
 1       98
 1       99
 1      100
 1      101
 1      102
 1      103
 1      104
 1      105
 1      106
 1      107
 1      108
 1      109
 1      110
 1      111
 1      112
 1      113
 1      114
 1      115
 1      116
 1      117
 1      118
 1      119
 1      120
 1      121
 1      122
 1      123
 1      124
 1      125
 1      126
 1      127
 1      128
 1      129
 1      130
 1      131
 1      132
 1      133
 1      134
 1      135
 1      136
 1      137
 1      138
 1      139
 1      140
 1      141
 1      142
 1      143
 1      144
 1      145
 1      146
 1      147
 1      148
 1      149
 1      150
 1      151
 1      152
 1      153
 1      154
 1      155
 1      156
 1      157
 1      158
 1      159
 1      160
 1      161
 1      162
 1      163
 1      164
 1      165
 1      166
 1      167
 1      168
 1      169
 1      170
 1      171
 1      172
 1      173
 1      174
 1      175
 1      176
 1      177
 1      178
 1      179
 1      180
 1      181
 1      182
 1      183
 1      184
 1      185
 1      186
 1      187
 1      188
 1      189
 1      190
 1      191
 1      192
 1      193
 1      194
 1      195
 1      196
 1      197
 1      198
 1      199
 1      200
 1      201
 1      202
 1      203
 1      204
 1      205
 1      206
 1      207
 1      208
 1      209
 1      210
 1      211
 1      212
 1      213
 1      214
 1      215
 1      216
 1      217
 1      218
 1      219
 1      220
 1      221
 1      222
 1      223
 1      224
 1      225
 1      226
 1      227
 1      228
 1      229
 1      230
 1      231
 1      232
 1      233
 1      234
 1      235
 1      236
 1      237
 1      238
 1      239
 1      240
 1      241
 1      242
 1      243
 1      244
 1      245
 1      246
 1      247
 1      248
 1      249
 1      250
 1      251
 1      252
 1      253
 1      254
 1      255
 1      256
 1      257
 1      258
 1      259
 1      260
 1      261
 1      262
 1      263
 1      264
 1      265
 1      266
 1      267
 1      268
 1      269
 1      270
 1      271
 1      272
 1      273
 1      274
 1      275
 1      276
 1      277
 1      278
 1      279
 1      280
 1      281
 1      282
 1      283
 1      284
 1      285
 1      286
 1      287
POINT_DATA      288
SCALARS hemisphere int 1
LOOKUP_TABLE default
 1
 1
 1
 1
 1
 1
 1
 1
 1
 1
 1
 1
 1
 1
 1
 1
 1
 1
 1
 1
 1
 1
 1
 1
 1
 1
 1
 1
 1
 1
 1
 1
 1
 1
 1
 1
 1
 1
 1
 1
 1
 1
 1
 1
 1
 1
 1
 1
 1
 1
 1
 1
 1
 1
 1
 1
 1
 1
 1
 1
 1
 1
 1
 1
 1
 1
 1
 1
 1
 1
 1
 1
 1
 1
 1
 1
 1
 1
 1
 1
 1
 1
 1
 1
 1
 1
 1
 1
 1
 1
 1
 1
 1
 1
 1
 1
 1
 1
 1
 1
 1
 1
 1
 1
 1
 1
 1
 1
 1
 1
 1
 1
 1
 1
 1
 1
 1
 1
 1
 1
 1
 1
 1
 1
 1
 1
 1
 1
 1
 1
 1
 1
 1
 1
 1
 1
 1
 1
 1
 1
 1
 1
 1
 1
-1
-1
-1
-1
-1
-1
-1
-1
-1
-1
-1
-1
-1
-1
-1
-1
-1
-1
-1
-1
-1
-1
-1
-1
-1
-1
-1
-1
-1
-1
-1
-1
-1
-1
-1
-1
-1
-1
-1
-1
-1
-1
-1
-1
-1
-1
-1
-1
-1
-1
-1
-1
-1
-1
-1
-1
-1
-1
-1
-1
-1
-1
-1
-1
-1
-1
-1
-1
-1
-1
-1
-1
-1
-1
-1
-1
-1
-1
-1
-1
-1
-1
-1
-1
-1
-1
-1
-1
-1
-1
-1
-1
-1
-1
-1
-1
-1
-1
-1
-1
-1
-1
-1
-1
-1
-1
-1
-1
-1
-1
-1
-1
-1
-1
-1
-1
-1
-1
-1
-1
-1
-1
-1
-1
-1
-1
-1
-1
-1
-1
-1
-1
-1
-1
-1
-1
-1
-1
-1
-1
-1
-1
-1
-1
