# vtk DataFile Version 3.0
T01 + IGRF magnetic field in GSW coordinates
ASCII
DATASET STRUCTURED_GRID
DIMENSIONS     61    21    21
POINTS    26901 float
     -50.000000     -10.000000     -10.000000
     -49.000000     -10.000000     -10.000000
     -48.000000     -10.000000     -10.000000
     -47.000000     -10.000000     -10.000000
     -46.000000     -10.000000     -10.000000
     -45.000000     -10.000000     -10.000000
     -44.000000     -10.000000     -10.000000
     -43.000000     -10.000000     -10.000000
     -42.000000     -10.000000     -10.000000
     -41.000000     -10.000000     -10.000000
     -40.000000     -10.000000     -10.000000
     -39.000000     -10.000000     -10.000000
     -38.000000     -10.000000     -10.000000
     -37.000000     -10.000000     -10.000000
     -36.000000     -10.000000     -10.000000
     -35.000000     -10.000000     -10.000000
     -34.000000     -10.000000     -10.000000
     -33.000000     -10.000000     -10.000000
     -32.000000     -10.000000     -10.000000
     -31.000000     -10.000000     -10.000000
     -30.000000     -10.000000     -10.000000
     -29.000000     -10.000000     -10.000000
     -28.000000     -10.000000     -10.000000
     -27.000000     -10.000000     -10.000000
     -26.000000     -10.000000     -10.000000
     -25.000000     -10.000000     -10.000000
     -24.000000     -10.000000     -10.000000
     -23.000000     -10.000000     -10.000000
     -22.000000     -10.000000     -10.000000
     -21.000000     -10.000000     -10.000000
     -20.000000     -10.000000     -10.000000
     -19.000000     -10.000000     -10.000000
     -18.000000     -10.000000     -10.000000
     -17.000000     -10.000000     -10.000000
     -16.000000     -10.000000     -10.000000
     -15.000000     -10.000000     -10.000000
     -14.000000     -10.000000     -10.000000
     -13.000000     -10.000000     -10.000000
     -12.000000     -10.000000     -10.000000
     -11.000000     -10.000000     -10.000000
     -10.000000     -10.000000     -10.000000
      -9.000000     -10.000000     -10.000000
      -8.000000     -10.000000     -10.000000
      -7.000000     -10.000000     -10.000000
      -6.000000     -10.000000     -10.000000
      -5.000000     -10.000000     -10.000000
      -4.000000     -10.000000     -10.000000
      -3.000000     -10.000000     -10.000000
      -2.000000     -10.000000     -10.000000
      -1.000000     -10.000000     -10.000000
       0.000000     -10.000000     -10.000000
       1.000000     -10.000000     -10.000000
       2.000000     -10.000000     -10.000000
       3.000000     -10.000000     -10.000000
       4.000000     -10.000000     -10.000000
       5.000000     -10.000000     -10.000000
       6.000000     -10.000000     -10.000000
       7.000000     -10.000000     -10.000000
       8.000000     -10.000000     -10.000000
       9.000000     -10.000000     -10.000000
      10.000000     -10.000000     -10.000000
     -50.000000      -9.000000     -10.000000
     -49.000000      -9.000000     -10.000000
     -48.000000      -9.000000     -10.000000
     -47.000000      -9.000000     -10.000000
     -46.000000      -9.000000     -10.000000
     -45.000000      -9.000000     -10.000000
     -44.000000      -9.000000     -10.000000
     -43.000000      -9.000000     -10.000000
     -42.000000      -9.000000     -10.000000
     -41.000000      -9.000000     -10.000000
     -40.000000      -9.000000     -10.000000
     -39.000000      -9.000000     -10.000000
     -38.000000      -9.000000     -10.000000
     -37.000000      -9.000000     -10.000000
     -36.000000      -9.000000     -10.000000
     -35.000000      -9.000000     -10.000000
     -34.000000      -9.000000     -10.000000
     -33.000000      -9.000000     -10.000000
     -32.000000      -9.000000     -10.000000
     -31.000000      -9.000000     -10.000000
     -30.000000      -9.000000     -10.000000
     -29.000000      -9.000000     -10.000000
     -28.000000      -9.000000     -10.000000
     -27.000000      -9.000000     -10.000000
     -26.000000      -9.000000     -10.000000
     -25.000000      -9.000000     -10.000000
     -24.000000      -9.000000     -10.000000
     -23.000000      -9.000000     -10.000000
     -22.000000      -9.000000     -10.000000
     -21.000000      -9.000000     -10.000000
     -20.000000      -9.000000     -10.000000
     -19.000000      -9.000000     -10.000000
     -18.000000      -9.000000     -10.000000
     -17.000000      -9.000000     -10.000000
     -16.000000      -9.000000     -10.000000
     -15.000000      -9.000000     -10.000000
     -14.000000      -9.000000     -10.000000
     -13.000000      -9.000000     -10.000000
     -12.000000      -9.000000     -10.000000
     -11.000000      -9.000000     -10.000000
     -10.000000      -9.000000     -10.000000
      -9.000000      -9.000000     -10.000000
      -8.000000      -9.000000     -10.000000
      -7.000000      -9.000000     -10.000000
      -6.000000      -9.000000     -10.000000
      -5.000000      -9.000000     -10.000000
      -4.000000      -9.000000     -10.000000
      -3.000000      -9.000000     -10.000000
      -2.000000      -9.000000     -10.000000
      -1.000000      -9.000000     -10.000000
       0.000000      -9.000000     -10.000000
       1.000000      -9.000000     -10.000000
       2.000000      -9.000000     -10.000000
       3.000000      -9.000000     -10.000000
       4.000000      -9.000000     -10.000000
       5.000000      -9.000000     -10.000000
       6.000000      -9.000000     -10.000000
       7.000000      -9.000000     -10.000000
       8.000000      -9.000000     -10.000000
       9.000000      -9.000000     -10.000000
      10.000000      -9.000000     -10.000000
     -50.000000      -8.000000     -10.000000
     -49.000000      -8.000000     -10.000000
     -48.000000      -8.000000     -10.000000
     -47.000000      -8.000000     -10.000000
     -46.000000      -8.000000     -10.000000
     -45.000000      -8.000000     -10.000000
     -44.000000      -8.000000     -10.000000
     -43.000000      -8.000000     -10.000000
     -42.000000      -8.000000     -10.000000
     -41.000000      -8.000000     -10.000000
     -40.000000      -8.000000     -10.000000
     -39.000000      -8.000000     -10.000000
     -38.000000      -8.000000     -10.000000
     -37.000000      -8.000000     -10.000000
     -36.000000      -8.000000     -10.000000
     -35.000000      -8.000000     -10.000000
     -34.000000      -8.000000     -10.000000
     -33.000000      -8.000000     -10.000000
     -32.000000      -8.000000     -10.000000
     -31.000000      -8.000000     -10.000000
     -30.000000      -8.000000     -10.000000
     -29.000000      -8.000000     -10.000000
     -28.000000      -8.000000     -10.000000
     -27.000000      -8.000000     -10.000000
     -26.000000      -8.000000     -10.000000
     -25.000000      -8.000000     -10.000000
     -24.000000      -8.000000     -10.000000
     -23.000000      -8.000000     -10.000000
     -22.000000      -8.000000     -10.000000
     -21.000000      -8.000000     -10.000000
     -20.000000      -8.000000     -10.000000
     -19.000000      -8.000000     -10.000000
     -18.000000      -8.000000     -10.000000
     -17.000000      -8.000000     -10.000000
     -16.000000      -8.000000     -10.000000
     -15.000000      -8.000000     -10.000000
     -14.000000      -8.000000     -10.000000
     -13.000000      -8.000000     -10.000000
     -12.000000      -8.000000     -10.000000
     -11.000000      -8.000000     -10.000000
     -10.000000      -8.000000     -10.000000
      -9.000000      -8.000000     -10.000000
      -8.000000      -8.000000     -10.000000
      -7.000000      -8.000000     -10.000000
      -6.000000      -8.000000     -10.000000
      -5.000000      -8.000000     -10.000000
      -4.000000      -8.000000     -10.000000
      -3.000000      -8.000000     -10.000000
      -2.000000      -8.000000     -10.000000
      -1.000000      -8.000000     -10.000000
       0.000000      -8.000000     -10.000000
       1.000000      -8.000000     -10.000000
       2.000000      -8.000000     -10.000000
       3.000000      -8.000000     -10.000000
       4.000000      -8.000000     -10.000000
       5.000000      -8.000000     -10.000000
       6.000000      -8.000000     -10.000000
       7.000000      -8.000000     -10.000000
       8.000000      -8.000000     -10.000000
       9.000000      -8.000000     -10.000000
      10.000000      -8.000000     -10.000000
     -50.000000      -7.000000     -10.000000
     -49.000000      -7.000000     -10.000000
     -48.000000      -7.000000     -10.000000
     -47.000000      -7.000000     -10.000000
     -46.000000      -7.000000     -10.000000
     -45.000000      -7.000000     -10.000000
     -44.000000      -7.000000     -10.000000
     -43.000000      -7.000000     -10.000000
     -42.000000      -7.000000     -10.000000
     -41.000000      -7.000000     -10.000000
     -40.000000      -7.000000     -10.000000
     -39.000000      -7.000000     -10.000000
     -38.000000      -7.000000     -10.000000
     -37.000000      -7.000000     -10.000000
     -36.000000      -7.000000     -10.000000
     -35.000000      -7.000000     -10.000000
     -34.000000      -7.000000     -10.000000
     -33.000000      -7.000000     -10.000000
     -32.000000      -7.000000     -10.000000
     -31.000000      -7.000000     -10.000000
     -30.000000      -7.000000     -10.000000
     -29.000000      -7.000000     -10.000000
     -28.000000      -7.000000     -10.000000
     -27.000000      -7.000000     -10.000000
     -26.000000      -7.000000     -10.000000
     -25.000000      -7.000000     -10.000000
[...]
POINT_DATA    26901
VECTORS B_total float
  -9.0644855E+00  -1.0846599E+00   3.2805924E+00
  -9.3800087E+00  -1.1149677E+00   3.3646569E+00
  -9.7050838E+00  -1.1469815E+00   3.4493110E+00
  -1.0040020E+01  -1.1809080E+00   3.5343342E+00
  -1.0385172E+01  -1.2169830E+00   3.6194818E+00
  -1.0740942E+01  -1.2554743E+00   3.7044806E+00
  -1.1107791E+01  -1.2966857E+00   3.7890244E+00
  -1.1486240E+01  -1.3409610E+00   3.8727689E+00
  -1.1876888E+01  -1.3886888E+00   3.9553246E+00
  -1.2280409E+01  -1.4403083E+00   4.0362506E+00
  -1.2697564E+01  -1.4963138E+00   4.1150436E+00
  -1.3129207E+01  -1.5572619E+00   4.1911268E+00
  -1.3576289E+01  -1.6237786E+00   4.2638407E+00
  -1.4039864E+01  -1.6965661E+00   4.3324261E+00
  -1.4521078E+01  -1.7764113E+00   4.3960123E+00
  -1.5021182E+01  -1.8641958E+00   4.4535999E+00
  -1.5541511E+01  -1.9609046E+00   4.5040474E+00
  -1.6083481E+01  -2.0676382E+00   4.5460572E+00
  -1.6648567E+01  -2.1856246E+00   4.5781617E+00
  -1.7238297E+01  -2.3162339E+00   4.5987148E+00
  -1.7854206E+01  -2.4609935E+00   4.6058869E+00
  -1.8497835E+01  -2.6216087E+00   4.5976639E+00
  -1.9170683E+01  -2.7999854E+00   4.5718451E+00
  -1.9874186E+01  -2.9982569E+00   4.5260553E+00
  -2.0609684E+01  -3.2188189E+00   4.4577484E+00
  -2.1378380E+01  -3.4643669E+00   4.3642144E+00
  -2.2181303E+01  -3.7379534E+00   4.2425871E+00
  -2.3019236E+01  -4.0430326E+00   4.0898414E+00
  -2.3892632E+01  -4.3835292E+00   3.9027994E+00
  -2.4801491E+01  -4.7639108E+00   3.6781459E+00
  -2.5745188E+01  -5.1892543E+00   3.4124670E+00
  -2.6722269E+01  -5.6653304E+00   3.1023428E+00
  -2.7730209E+01  -6.1986699E+00   2.7444947E+00
  -2.8765141E+01  -6.7966299E+00   2.3360155E+00
  -2.9821619E+01  -7.4674425E+00   1.8746741E+00
  -3.0892408E+01  -8.2202187E+00   1.3592525E+00
  -3.1968290E+01  -9.0648689E+00   7.8988415E-01
  -3.3037876E+01  -1.0011852E+01   1.6833007E-01
  -3.4087349E+01  -1.1071659E+01  -5.0183535E-01
  -3.5100021E+01  -1.2253828E+01  -1.2150950E+00
  -3.6055771E+01  -1.3565329E+01  -1.9637666E+00
  -3.6930313E+01  -1.5008121E+01  -2.7374351E+00
  -3.7694931E+01  -1.6575874E+01  -3.5217202E+00
  -3.8317219E+01  -1.8250004E+01  -4.2961698E+00
  -3.8764030E+01  -1.9995804E+01  -5.0314898E+00
  -3.9007332E+01  -2.1759705E+01  -5.6868954E+00
  -3.9033073E+01  -2.3469267E+01  -6.2088633E+00
  -3.8851868E+01  -2.5037373E+01  -6.5328722E+00
  -3.8508560E+01  -2.6371330E+01  -6.5890021E+00
  -3.8087231E+01  -2.7386024E+01  -6.3111210E+00
  -3.6034782E+01  -2.6777128E+01  -5.3715014E+00
  -9.4486654E-02  -1.3244152E-01   5.4991531E-01
  -1.0403597E-01  -1.5991592E-01   5.3550386E-01
  -1.0595226E-01  -1.8913555E-01   5.2101898E-01
  -1.0108614E-01  -2.1741199E-01   5.0801897E-01
  -9.1125965E-02  -2.4270153E-01   4.9756622E-01
  -7.8106880E-02  -2.6378059E-01   4.9012041E-01
  -6.3928127E-02  -2.8026676E-01   4.8559928E-01
  -5.0092220E-02  -2.9237938E-01   4.8356509E-01
  -3.7581444E-02  -3.0072641E-01   4.8341656E-01
  -2.6908875E-02  -3.0605888E-01   4.8454368E-01
  -9.1152401E+00  -1.0143845E+00   3.2891870E+00
  -9.4332952E+00  -1.0424801E+00   3.3722861E+00
  -9.7611351E+00  -1.0721858E+00   3.4558556E+00
  -1.0099099E+01  -1.1036948E+00   3.5396717E+00
  -1.0447575E+01  -1.1372266E+00   3.6234844E+00
  -1.0806999E+01  -1.1730310E+00   3.7070158E+00
  -1.1177876E+01  -1.2113907E+00   3.7899539E+00
  -1.1560774E+01  -1.2526270E+00   3.8719490E+00
  -1.1956343E+01  -1.2971023E+00   3.9526038E+00
  -1.2365314E+01  -1.3452269E+00   4.0314689E+00
  -1.2788517E+01  -1.3974636E+00   4.1080284E+00
  -1.3226878E+01  -1.4543341E+00   4.1816936E+00
  -1.3681432E+01  -1.5164266E+00   4.2517848E+00
  -1.4153323E+01  -1.5844021E+00   4.3175201E+00
  -1.4643803E+01  -1.6590042E+00   4.3779988E+00
  -1.5154234E+01  -1.7410676E+00   4.4321847E+00
  -1.5686083E+01  -1.8315291E+00   4.4788895E+00
  -1.6240904E+01  -1.9314395E+00   4.5167570E+00
  -1.6820337E+01  -2.0419762E+00   4.5442495E+00
  -1.7426081E+01  -2.1644599E+00   4.5596352E+00
  -1.8059874E+01  -2.3003724E+00   4.5609803E+00
  -1.8723475E+01  -2.4513786E+00   4.5461445E+00
  -1.9418636E+01  -2.6193511E+00   4.5127802E+00
  -2.0147083E+01  -2.8064070E+00   4.4583330E+00
  -2.0910479E+01  -3.0149422E+00   4.3800435E+00
  -2.1710402E+01  -3.2476821E+00   4.2749424E+00
  -2.2548321E+01  -3.5077453E+00   4.1398482E+00
  -2.3425520E+01  -3.7987058E+00   3.9713507E+00
  -2.4343027E+01  -4.1246786E+00   3.7657957E+00
  -2.5301497E+01  -4.4904160E+00   3.5192823E+00
  -2.6301048E+01  -4.9014125E+00   3.2276750E+00
  -2.7341049E+01  -5.3640223E+00   2.8866634E+00
  -2.8419872E+01  -5.8855963E+00   2.4918859E+00
  -2.9534624E+01  -6.4746170E+00   2.0391154E+00
  -3.0680864E+01  -7.1408420E+00   1.5245048E+00
  -3.1852341E+01  -7.8954191E+00   9.4485611E-01
  -3.3040668E+01  -8.7509251E+00   2.9786563E-01
  -3.4234947E+01  -9.7212477E+00  -4.1771805E-01
  -3.5421082E+01  -1.0821122E+01  -1.2019889E+00
  -3.6580791E+01  -1.2065125E+01  -2.0537682E+00
  -3.7690170E+01  -1.3465839E+01  -2.9702017E+00
  -3.8717968E+01  -1.5030857E+01  -3.9456499E+00
  -3.9624256E+01  -1.6758497E+01  -4.9693809E+00
  -4.0360596E+01  -1.8632336E+01  -6.0217657E+00
  -4.0873291E+01  -2.0615295E+01  -7.0692797E+00
  -4.1111320E+01  -2.2644867E+01  -8.0594940E+00
  -4.1039162E+01  -2.4631535E+01  -8.9182110E+00
  -4.0653172E+01  -2.6463028E+01  -9.5512753E+00
  -3.9997303E+01  -2.8015957E+01  -9.8530807E+00
  -3.9172085E+01  -2.9174158E+01  -9.7212572E+00
  -3.8331596E+01  -2.9849941E+01  -9.0747252E+00
  -3.7666412E+01  -3.0001995E+01  -7.8693576E+00
  -1.3692832E-01  -1.3726807E-01   5.7296753E-01
  -1.3901281E-01  -1.7475319E-01   5.4925299E-01
  -1.3145161E-01  -2.1043587E-01   5.2773762E-01
  -1.1693382E-01  -2.4157619E-01   5.1025438E-01
  -9.8548412E-02  -2.6675034E-01   4.9752140E-01
  -7.9070091E-02  -2.8568554E-01   4.8938394E-01
  -6.0566902E-02  -2.9892445E-01   4.8511648E-01
  -4.4280529E-02  -3.0746603E-01   4.8374450E-01
  -3.0758381E-02  -3.1241560E-01   4.8431635E-01
  -9.1645403E+00  -9.4118059E-01   3.2987235E+00
  -9.4850178E+00  -9.6678615E-01   3.3809738E+00
  -9.8154974E+00  -9.9388170E-01   3.4635859E+00
  -1.0156343E+01  -1.0226442E+00   3.5463305E+00
  -1.0507973E+01  -1.0532746E+00   3.6289525E+00
  -1.0870859E+01  -1.0860022E+00   3.7111695E+00
  -1.1245542E+01  -1.1210864E+00   3.7926645E+00
  -1.1632636E+01  -1.1588209E+00   3.8730800E+00
  -1.2032836E+01  -1.1995395E+00   3.9520128E+00
  -1.2446930E+01  -1.2436187E+00   4.0290022E+00
  -1.2875810E+01  -1.2914848E+00   4.1035228E+00
  -1.3320470E+01  -1.3436188E+00   4.1749692E+00
  -1.3782024E+01  -1.4005637E+00   4.2426438E+00
  -1.4261703E+01  -1.4629321E+00   4.3057413E+00
  -1.4760857E+01  -1.5314139E+00   4.3633308E+00
  -1.5280958E+01  -1.6067866E+00   4.4143386E+00
  -1.5823596E+01  -1.6899251E+00   4.4575291E+00
  -1.6390467E+01  -1.7818147E+00   4.4914894E+00
  -1.6983360E+01  -1.8835645E+00   4.5146098E+00
  -1.7604153E+01  -1.9964242E+00   4.5250726E+00
  -1.8254782E+01  -2.1218033E+00   4.5208411E+00
  -1.8937229E+01  -2.2612953E+00   4.4996500E+00
  -1.9653507E+01  -2.4167056E+00   4.4590015E+00
  -2.0405636E+01  -2.5900881E+00   4.3961620E+00
  -2.1195618E+01  -2.7837882E+00   4.3081512E+00
  -2.2025450E+01  -3.0005019E+00   4.1917400E+00
  -2.2897062E+01  -3.2433376E+00   4.0434179E+00
  -2.3812294E+01  -3.5159011E+00   3.8593721E+00
  -2.4772827E+01  -3.8223958E+00   3.6354489E+00
  -2.5780081E+01  -4.1677375E+00   3.3671217E+00
  -2.6835051E+01  -4.5576944E+00   3.0494702E+00
  -2.7938137E+01  -4.9990535E+00   2.6772113E+00
  -2.9088877E+01  -5.4998088E+00   2.2447600E+00
  -3.0285702E+01  -6.0693860E+00   1.7463586E+00
  -3.1525663E+01  -6.7188945E+00   1.1762348E+00
  -3.2804100E+01  -7.4613724E+00   5.2874136E-01
  -3.4114254E+01  -8.3120022E+00  -2.0156372E-01
  -3.5446594E+01  -9.2881527E+00  -1.0199479E+00
  -3.6787746E+01  -1.0409095E+01  -1.9316077E+00
  -3.8118771E+01  -1.1695086E+01  -2.9416499E+00
  -3.9412594E+01  -1.3165422E+01  -4.0545716E+00
  -4.0630863E+01  -1.4835011E+01  -5.2725401E+00
  -4.1721008E+01  -1.6709087E+01  -6.5917654E+00
  -4.2615131E+01  -1.8776028E+01  -7.9963694E+00
  -4.3233147E+01  -2.0998955E+01  -9.4500885E+00
  -4.3492702E+01  -2.3307968E+01  -1.0887518E+01
  -4.3327152E+01  -2.5595955E+01  -1.2208154E+01
  -4.2709961E+01  -2.7722216E+01  -1.3277580E+01
  -4.1679707E+01  -2.9526520E+01  -1.3939514E+01
  -4.0356152E+01  -3.0854029E+01  -1.4039054E+01
  -3.8937893E+01  -3.1585819E+01  -1.3452438E+01
  -3.7677315E+01  -3.1665564E+01  -1.2113552E+01
  -2.9825626E+01  -2.5183834E+01  -7.9892898E+00
  -1.8044519E-01  -1.6753578E-01   5.8760738E-01
  -1.6862822E-01  -2.1094894E-01   5.5375099E-01
  -1.4755249E-01  -2.4770832E-01   5.2627707E-01
  -1.2184334E-01  -2.7625370E-01   5.0627041E-01
  -9.5469475E-02  -2.9663658E-01   4.9337387E-01
  -7.1155548E-02  -3.0993271E-01   4.8630786E-01
  -5.0392151E-02  -3.1765747E-01   4.8351860E-01
  -3.3665657E-02  -3.2135248E-01   4.8354125E-01
  -9.2112846E+00  -8.6542398E-01   3.3090379E+00
  -9.5340281E+00  -8.8829458E-01   3.3905656E+00
  -9.8669662E+00  -9.1251290E-01   3.4723561E+00
  -1.0210494E+01  -9.3823797E-01   3.5541751E+00
  -1.0565052E+01  -9.6565062E-01   3.6357648E+00
  -1.0931146E+01  -9.9495625E-01   3.7168365E+00
  -1.1309351E+01  -1.0263882E+00   3.7970672E+00
  -1.1700317E+01  -1.0602109E+00   3.8760943E+00
  -1.2104788E+01  -1.0967244E+00   3.9535062E+00
  -1.2523602E+01  -1.1362681E+00   4.0288343E+00
  -1.2957703E+01  -1.1792265E+00   4.1015396E+00
  -1.3408153E+01  -1.2260344E+00   4.1710043E+00
  -1.3876136E+01  -1.2771834E+00   4.2365122E+00
  -1.4362964E+01  -1.3332289E+00   4.2972341E+00
  -1.4870081E+01  -1.3947988E+00   4.3522100E+00
  -1.5399061E+01  -1.4626015E+00   4.4003305E+00
  -1.5951611E+01  -1.5374376E+00   4.4403148E+00
  -1.6529554E+01  -1.6202114E+00   4.4706936E+00
  -1.7134836E+01  -1.7119443E+00   4.4897890E+00
  -1.7769497E+01  -1.8137933E+00   4.4957008E+00
  -1.8435665E+01  -1.9270686E+00   4.4862919E+00
  -1.9135546E+01  -2.0532601E+00   4.4591751E+00
  -1.9871408E+01  -2.1940660E+00   4.4117074E+00
  -2.0645569E+01  -2.3514318E+00   4.3409781E+00
  -2.1460384E+01  -2.5275958E+00   4.2437935E+00
  -2.2318264E+01  -2.7251501E+00   4.1166596E+00
  -2.3221636E+01  -2.9471126E+00   3.9557419E+00
  -2.4172928E+01  -3.1970181E+00   3.7568209E+00
  -2.5174528E+01  -3.4790297E+00   3.5152309E+00
  -2.6228691E+01  -3.7980762E+00   3.2257984E+00
  -2.7337423E+01  -4.1600180E+00   2.8827870E+00
  -2.8502302E+01  -4.5718508E+00   2.4798691E+00
  -2.9724287E+01  -5.0419550E+00   2.0101371E+00
  -3.1003479E+01  -5.5804019E+00   1.4661300E+00
  -3.2338882E+01  -6.1993093E+00   8.3986419E-01
  -3.3728073E+01  -6.9132447E+00   1.2279916E-01
  -3.5166729E+01  -7.7396269E+00  -6.9433808E-01
  -3.6647758E+01  -8.6990042E+00  -1.6218860E+00
  -3.8159752E+01  -9.8150206E+00  -2.6716886E+00
  -3.9684418E+01  -1.1113720E+01  -3.8573546E+00
  -4.1192696E+01  -1.2621697E+01  -5.1937461E+00
  -4.2639702E+01  -1.4362429E+01  -6.6947179E+00
  -4.3959484E+01  -1.6350159E+01  -8.3679028E+00
  -4.5061726E+01  -1.8581013E+01  -1.0205660E+01
  -4.5833870E+01  -2.1021740E+01  -1.2172167E+01
  -4.6152733E+01  -2.3598110E+01  -1.4188902E+01
  -4.5908463E+01  -2.6187037E+01  -1.6123230E+01
  -4.5039841E+01  -2.8618063E+01  -1.7787361E+01
  -4.3573002E+01  -3.0689610E+01  -1.8954472E+01
  -4.1649090E+01  -3.2201447E+01  -1.9394257E+01
  -3.9524376E+01  -3.2996998E+01  -1.8920982E+01
  -3.7534603E+01  -3.3001900E+01  -1.7437824E+01
  -3.6031174E+01  -3.2242706E+01  -1.4958883E+01
  -8.3889503E+00  -7.3054733E+00  -2.2097044E+00
  -2.1200275E-01  -2.2446823E-01   5.8469296E-01
  -1.8184090E-01  -2.6519394E-01   5.4398441E-01
  -1.4658260E-01  -2.9514217E-01   5.1478672E-01
  -1.1163616E-01  -3.1497669E-01   4.9618006E-01
  -8.0498695E-02  -3.2649899E-01   4.8606300E-01
  -5.4759026E-02  -3.3188534E-01   4.8195457E-01
  -3.4704208E-02  -3.3312988E-01   4.8166776E-01
  -9.2543621E+00  -7.8743911E-01   3.3197248E+00
  -9.5791645E+00  -8.0736244E-01   3.4006553E+00
  -9.9143372E+00  -8.2847244E-01   3.4817615E+00
  -1.0260293E+01  -8.5090834E-01   3.5628052E+00
  -1.0617501E+01  -8.7482858E-01   3.6435242E+00
  -1.0986492E+01  -9.0041316E-01   3.7236249E+00
  -1.1367872E+01  -9.2786670E-01   3.8027802E+00
  -1.1762327E+01  -9.5742136E-01   3.8806207E+00
  -1.2170639E+01  -9.8934025E-01   3.9567280E+00
  -1.2593692E+01  -1.0239221E+00   4.0306244E+00
  -1.3032481E+01  -1.0615048E+00   4.1017613E+00
  -1.3488126E+01  -1.1024722E+00   4.1695065E+00
  -1.3961876E+01  -1.1472577E+00   4.2331266E+00
  -1.4455114E+01  -1.1963527E+00   4.2917714E+00
  -1.4969372E+01  -1.2503138E+00   4.3444543E+00
  -1.5506313E+01  -1.3097705E+00   4.3900309E+00
  -1.6067755E+01  -1.3754361E+00   4.4271779E+00
  -1.6655640E+01  -1.4481184E+00   4.4543757E+00
  -1.7272053E+01  -1.5287342E+00   4.4698825E+00
  -1.7919189E+01  -1.6183246E+00   4.4717202E+00
  -1.8599363E+01  -1.7180743E+00   4.4576569E+00
  -1.9314991E+01  -1.8293374E+00   4.4251943E+00
  -2.0068581E+01  -1.9536654E+00   4.3715510E+00
  -2.0862745E+01  -2.0928459E+00   4.2936482E+00
  -2.1700186E+01  -2.2489507E+00   4.1880903E+00
  -2.2583723E+01  -2.4243944E+00   4.0511293E+00
  -2.3516281E+01  -2.6220121E+00   3.8786168E+00
  -2.4500889E+01  -2.8451526E+00   3.6659362E+00
  -2.5540663E+01  -3.0977979E+00   3.4079185E+00
  -2.6638744E+01  -3.3847117E+00   3.0987480E+00
  -2.7798210E+01  -3.7116237E+00   2.7318611E+00
  -2.9021954E+01  -4.0854654E+00   2.2998667E+00
  -3.0312519E+01  -4.5146623E+00   1.7944707E+00
  -3.1671963E+01  -5.0095057E+00   1.2063930E+00
  -3.3101643E+01  -5.5826135E+00   5.2523649E-01
  -3.4601952E+01  -6.2494669E+00  -2.6080251E-01
  -3.6171810E+01  -7.0290060E+00  -1.1654216E+00
  -3.7807629E+01  -7.9441652E+00  -2.2049978E+00
  -3.9501335E+01  -9.0221567E+00  -3.3995245E+00
  -4.1236912E+01  -1.0294117E+01  -4.7733684E+00
  -4.2984989E+01  -1.1793554E+01  -6.3550000E+00
  -4.4695526E+01  -1.3552752E+01  -8.1743641E+00
  -4.6289459E+01  -1.5596182E+01  -1.0256072E+01
  -4.7652153E+01  -1.7930185E+01  -1.2606798E+01
  -4.8633141E+01  -2.0528894E+01  -1.5196369E+01
  -4.9058601E+01  -2.3318470E+01  -1.7934935E+01
  -4.8761745E+01  -2.6164227E+01  -2.0652813E+01
  -4.7631969E+01  -2.8868660E+01  -2.3094303E+01
  -4.5672897E+01  -3.1188622E+01  -2.4937717E+01
  -4.3047714E+01  -3.2875565E+01  -2.5847734E+01
  -4.0084980E+01  -3.3731686E+01  -2.5550852E+01
  -3.7229172E+01  -3.3662720E+01  -2.3907375E+01
  -3.4946491E+01  -3.2704319E+01  -2.0947779E+01
  -3.3622063E+01  -3.1009075E+01  -1.6855391E+01
  -2.5914574E-01  -2.5736809E-01   6.1637306E-01
  -2.1703815E-01  -2.9833031E-01   5.5964184E-01
  -1.7000675E-01  -3.2603264E-01   5.2001476E-01
  -1.2515163E-01  -3.4209728E-01   4.9556541E-01
  -8.6579323E-02  -3.4922600E-01   4.8278332E-01
  -5.5840492E-02  -3.5027027E-01   4.7797108E-01
  -3.2756805E-02  -3.4762239E-01   4.7799325E-01
  -9.2927179E+00  -7.0751798E-01   3.3302338E+00
  -9.6193323E+00  -7.2431439E-01   3.4106874E+00
  -9.9564695E+00  -7.4212033E-01   3.4912415E+00
  -1.0304557E+01  -7.6105404E-01   3.5716562E+00
  -1.0664087E+01  -7.8124976E-01   3.6516635E+00
  -1.1035613E+01  -8.0286038E-01   3.7309675E+00
  -1.1419768E+01  -8.2605946E-01   3.8092356E+00
  -1.1817270E+01  -8.5104448E-01   3.8860936E+00
  -1.2228934E+01  -8.7803900E-01   3.9611166E+00
  -1.2655683E+01  -9.0729725E-01   4.0338192E+00
  -1.3098557E+01  -9.3910736E-01   4.1036434E+00
  -1.3558726E+01  -9.7379637E-01   4.1699448E+00
  -1.4037495E+01  -1.0117350E+00   4.2319741E+00
  -1.4536315E+01  -1.0533438E+00   4.2888632E+00
  -1.5056785E+01  -1.0990996E+00   4.3396001E+00
  -1.5600660E+01  -1.1495439E+00   4.3830104E+00
  -1.6169846E+01  -1.2052909E+00   4.4177346E+00
  -1.6766396E+01  -1.2670383E+00   4.4422045E+00
  -1.7392519E+01  -1.3355807E+00   4.4546223E+00
  -1.8050554E+01  -1.4118228E+00   4.4529419E+00
  -1.8742981E+01  -1.4967992E+00   4.4348459E+00
  -1.9472404E+01  -1.5916958E+00   4.3977337E+00
  -2.0241570E+01  -1.6978794E+00   4.3387003E+00
  -2.1053350E+01  -1.8169324E+00   4.2545156E+00
  -2.1910776E+01  -1.9506999E+00   4.1415954E+00
  -2.2817060E+01  -2.1013443E+00   3.9959610E+00
  -2.3775600E+01  -2.2714238E+00   3.8131707E+00
  -2.4790018E+01  -2.4639816E+00   3.5882380E+00
  -2.5864140E+01  -2.6826677E+00   3.3155191E+00
  -2.7001989E+01  -2.9318864E+00   2.9885824E+00
  -2.8207737E+01  -3.2169909E+00   2.6000702E+00
  -2.9485624E+01  -3.5445292E+00   2.1415467E+00
  -3.0839895E+01  -3.9225626E+00   1.6033354E+00
  -3.2274712E+01  -4.3610816E+00   9.7431445E-01
  -3.3794056E+01  -4.8725252E+00   2.4156702E-01
  -3.5401566E+01  -5.4724298E+00  -6.1016953E-01
  -3.7100040E+01  -6.1801767E+00  -1.5994205E+00
  -3.8890327E+01  -7.0197644E+00  -2.7493031E+00
  -4.0768951E+01  -8.0203953E+00  -4.0891500E+00
  -4.2723862E+01  -9.2165680E+00  -5.6560068E+00
  -4.4727390E+01  -1.0646955E+01  -7.4949241E+00
  -4.6726383E+01  -1.2351229E+01  -9.6562719E+00
  -4.8630142E+01  -1.4363506E+01  -1.2187510E+01
  -5.0299381E+01  -1.6701256E+01  -1.5116726E+01
  -5.1542126E+01  -1.9349117E+01  -1.8426422E+01
  -5.2125420E+01  -2.2239195E+01  -2.2019642E+01
  -5.1812057E+01  -2.5232975E+01  -2.5687050E+01
  -5.0426014E+01  -2.8114498E+01  -2.9091343E+01
  -4.7935837E+01  -3.0606754E+01  -3.1789877E+01
  -4.4525284E+01  -3.2418278E+01  -3.3308414E+01
  -4.0609249E+01  -3.3312950E+01  -3.3254955E+01
  -3.6767384E+01  -3.3177898E+01  -3.1432096E+01
  -3.3609245E+01  -3.2058205E+01  -2.7894892E+01
  -3.1626518E+01  -3.0139677E+01  -2.2922882E+01
  -2.1481131E+01  -1.9141729E+01  -1.1438094E+01
  -2.4830914E-01  -3.5011864E-01   5.6693268E-01
  -1.8790817E-01  -3.7016010E-01   5.1740170E-01
  -1.3261223E-01  -3.7812710E-01   4.8839951E-01
  -8.6894035E-02  -3.7767124E-01   4.7447205E-01
  -5.1846504E-02  -3.7214661E-01   4.7032547E-01
  -2.6608467E-02  -3.6413527E-01   4.7176838E-01
  -9.3254147E+00  -6.2594271E-01   3.3399696E+00
  -9.6535587E+00  -6.3946426E-01   3.4200559E+00
  -9.9923496E+00  -6.5380520E-01   3.5001824E+00
  -1.0342234E+01  -6.6906142E-01   3.5801048E+00
  -1.0703717E+01  -6.8534189E-01   3.6595533E+00
  -1.1077374E+01  -7.0277071E-01   3.7382274E+00
  -1.1463861E+01  -7.2148877E-01   3.8157916E+00
  -1.1863918E+01  -7.4165642E-01   3.8918669E+00
  -1.2278394E+01  -7.6345551E-01   3.9660230E+00
  -1.2708240E+01  -7.8709298E-01   4.0377684E+00
  -1.3154534E+01  -8.1280345E-01   4.1065364E+00
  -1.3618491E+01  -8.4085369E-01   4.1716723E+00
  -1.4101462E+01  -8.7154645E-01   4.2324152E+00
  -1.4604954E+01  -9.0522569E-01   4.2878780E+00
  -1.5130628E+01  -9.4228220E-01   4.3370304E+00
  -1.5680307E+01  -9.8316026E-01   4.3786721E+00
  -1.6255980E+01  -1.0283650E+00   4.4114103E+00
  -1.6859797E+01  -1.0784723E+00   4.4336381E+00
  -1.7494064E+01  -1.1341381E+00   4.4435105E+00
  -1.8161253E+01  -1.1961132E+00   4.4389195E+00
  -1.8863983E+01  -1.2652582E+00   4.4174781E+00
  -1.9605030E+01  -1.3425633E+00   4.3764958E+00
  -2.0387337E+01  -1.4291744E+00   4.3129625E+00
  -2.1214022E+01  -1.5264241E+00   4.2235141E+00
  -2.2088400E+01  -1.6358744E+00   4.1044049E+00
  -2.3014044E+01  -1.7593645E+00   3.9514532E+00
  -2.3994783E+01  -1.8990840E+00   3.7599578E+00
  -2.5034773E+01  -2.0576546E+00   3.5246034E+00
  -2.6138510E+01  -2.2382414E+00   3.2393184E+00
  -2.7310844E+01  -2.4446940E+00   2.8971162E+00
  -2.8556984E+01  -2.6817312E+00   2.4899106E+00
  -2.9882490E+01  -2.9551799E+00   2.0082965E+00
  -3.1293264E+01  -3.2722921E+00   1.4413019E+00