<?xml version="1.0"?>
<VTKFile type="StructuredGrid" version="0.1" byte_order="LittleEndian" header_type="UInt32" compressor="vtkZLibDataCompressor">
  <StructuredGrid WholeExtent="0 60 0 20 0 20">
  <Piece Extent="0 60 0 20 0 20">
    <PointData Vectors="B_total">
      <DataArray type="Float32" Name="B_total" NumberOfComponents="3" format="ascii" RangeMin="0" RangeMax="61739.21863074852">
        -9.592279 -1.3031739 3.2379494 -9.919729 -1.3390268 3.3237028
        -10.25648 -1.3764772 3.4100833 -10.602795 -1.415712 3.4968262
        -10.958977 -1.4569463 3.5836341 -11.325379 -1.5004263 3.6701725
        -11.702406 -1.5464329 3.7560635 -12.090523 -1.5952854 3.8408813
        -12.490269 -1.647347 3.9241452 -12.902252 -1.7030277 4.005309
        -13.327167 -1.7627908 4.0837545 -13.765796 -1.827158 4.158779
        -14.21901 -1.8967154 4.2295837 -14.687778 -1.9721211 4.295262
        -15.173157 -2.0541115 4.3547845 -15.676294 -2.143511 4.406987
        -16.198421 -2.2412405 4.450558 -16.740839 -2.3483295 4.4840274
        -17.304901 -2.4659276 4.505756 -17.892002 -2.5953205 4.5139303
        -18.503542 -2.7379475 4.5065627 -19.140913 -2.8954246 4.481493
        -19.805468 -3.069568 4.436393 -20.49847 -3.262429 4.368778
        -21.221085 -3.4763308 4.27602 -21.97431 -3.7139153 4.1553535
        -22.75893 -3.9781976 4.003905 -23.575438 -4.272625 3.8186867
        -24.423925 -4.60115 3.5966296 -25.30395 -4.968307 3.3346257
        -26.214333 -5.379294 3.029598 -27.152945 -5.840059 2.6786273
        -28.116436 -6.3573813 2.2791495 -29.099949 -6.938946 1.8292334
        -30.096853 -7.5933743 1.3279274 -31.09846 -8.330193 0.7756643
        -32.0938 -9.159666 0.17467439 -33.069374 -10.092391 -0.47062412
        -34.008907 -11.13854 -1.153291 -34.892986 -12.306551 -1.8635255
        -35.698734 -13.601109 -2.588219 -36.39959 -15.020313 -3.3101554
        -36.965706 -16.55201 -4.0066204 -37.36573 -18.169796 -4.6473207
        -37.570724 -19.829311 -5.1919193 -37.561043 -21.46622 -5.588077
        -37.3357 -22.997358 -5.7713137 -36.922817 -24.326336 -5.6681466
        -36.38795 -25.353977 -5.2030725 -35.83689 -25.992062 -4.3084636
        -0.099215806 -0.4527998 0.3723898 -0.078380585 -0.47407627 0.35886335
        -0.05221939 -0.48869896 0.35097122 -0.02364254 -0.4954996 0.3494277
        0.004324913 -0.494462 0.35399437 0.029169083 -0.48659134 0.36363125
        0.049243927 -0.4735241 0.37684643 0.06386852 -0.45712852 0.3920443
        0.07315111 -0.43914175 0.40780628 0.07775164 -0.42099 0.42304167
        0.0785799 -0.4036727 0.437028 -9.634209 -1.214082 3.2332256
        -9.963501 -1.2470694 3.3174767 -10.302287 -1.2815472 3.4022205
        -10.65086 -1.3176894 3.487188 -11.009554 -1.3556962 3.5720787
        -11.378757 -1.3957964 3.656553 -11.758911 -1.4382516 3.7402306
        -12.150527 -1.4833596 3.8226805 -12.55419 -1.5314581 3.9034162
        -12.970562 -1.5829301 3.9818854 -13.400398 -1.6382083 4.0574613
        -13.844543 -1.6977812 4.1294312 -14.303944 -1.7621983 4.1969824
        -14.779644 -1.8320785 4.2591906 -15.272792 -1.9081157 4.3150053
        -15.784634 -1.9910899 4.363234 -16.316507 -2.0818758 4.4025316
        -16.869833 -2.1814551 4.4313827 -17.446104 -2.29093 4.4480953
        -18.046864 -2.4115405 4.4507914 -18.673689 -2.5446842 4.4373994
        -19.328173 -2.6919403 4.4056587 -20.01189 -2.8551009 4.3531156
        -20.72638 -3.0362082 4.27713 -21.47311 -3.237597 4.174877
        -22.253445 -3.4619522 4.043346 -23.068588 -3.7123747 3.8793542
        -23.919525 -3.9924574 3.6795273 -24.806923 -4.3063774 3.4403086
        -25.73099 -4.6590023 3.1579807 -26.691303 -5.056012 2.828705
        -27.686594 -5.504036 2.4486165 -28.714464 -6.0108027 2.0139723
        -29.771112 -6.585294 1.5213661 -30.850996 -7.237878 0.96799386
        -31.946503 -7.980402 0.35195637 -33.047504 -8.826121 -0.32745337
        -34.14084 -9.789416 -1.0694613 -35.209557 -10.885042 -1.8715409
        -36.231857 -12.126736 -2.7289844 -37.17985 -13.524879 -3.63408
        -38.018295 -15.082968 -4.5745325 -38.70412 -16.792881 -5.5306997
        -39.187836 -18.629162 -6.471551 -39.41838 -20.543356 -7.3498206
        -39.352467 -22.459957 -8.097786 -38.968597 -24.276442 -8.625949
        -38.283356 -25.86949 -8.827062 -37.36554 -27.10883 -8.587073
        -36.341854 -27.877018 -7.801897 -35.389317 -28.090595 -6.395735
        -0.09907961 -0.48851395 0.3000393 -0.06449938 -0.50730896 0.2889676
        -0.02682209 -0.5161085 0.28763914 0.009578228 -0.5149555 0.29548454
        0.041187763 -0.50526905 0.31071424 0.06589794 -0.4893341 0.33085346
        0.08302212 -0.46963024 0.35340524 0.09300566 -0.44839573 0.3762468
        0.096973896 -0.42735672 0.39784658 0.09632635 -0.40767145 0.41727847
        -9.669857 -1.1203613 3.227482 -10.000765 -1.1502382 3.310366
        -10.341346 -1.1814824 3.3936238 -10.691916 -1.2142534 3.4769852
        -11.052839 -1.2487346 3.5601459 -11.424535 -1.2851357 3.6427643
        -11.807483 -1.3236966 3.7244563 -12.202232 -1.36469 3.8047867
        -12.609413 -1.4084264 3.8832653 -13.02974 -1.4552577 3.9593341
        -13.464019 -1.5055822 4.032359 -13.913157 -1.5598499 4.101618
        -14.37817 -1.6185687 4.1662855 -14.860177 -1.6823107 4.225423
        -15.360411 -1.7517207 4.277959 -15.880212 -1.8275245 4.322676
        -16.42102 -1.9105392 4.358196 -16.98438 -2.0016854 4.3829637
        -17.571913 -2.1020026 4.395236 -18.18532 -2.2126656 4.393071
        -18.826355 -2.3350055 4.374321 -19.496809 -2.4705398 4.3366237
        -20.1985 -2.621 4.2774043 -20.93324 -2.7883766 4.1938667
        -21.702835 -2.9749663 4.082987 -22.509033 -3.1834364 3.9415176
        -23.353508 -3.4168983 3.7659497 -24.237793 -3.678999 3.5525088
        -25.163212 -3.9740336 3.2971296 -26.130743 -4.3070765 2.9954443
        -27.140884 -4.684141 2.6427903 -28.193436 -5.1123695 2.2342544
        -29.287258 -5.60025 1.7647519 -30.419987 -6.1578603 1.2291536
        -31.587704 -6.79713 0.6224264 -32.784492 -7.532051 -0.06022644
        -34.001884 -8.378802 -0.823264 -35.227955 -9.355606 -1.6707345
        -36.446014 -10.48213 -2.6061344 -37.632732 -11.778125 -3.6319854
        -38.75563 -13.260899 -4.748687 -39.770363 -14.941213 -5.9520226
        -40.618786 -16.817429 -7.228728 -41.229397 -18.867882 -8.549753
        -41.52258 -21.042603 -9.861919 -41.422775 -23.256332 -11.079924
        -40.878304 -25.38624 -12.082337 -39.886364 -27.278105 -12.716019
        -38.516296 -28.763681 -12.812167 -36.92118 -29.688086 -12.213344
        -35.328625 -29.940971 -10.80489 -34.008545 -29.480717 -8.539416
        -0.08047581 -0.5156441 0.21042347 -0.031328678 -0.52755547 0.20931244
        0.015581131 -0.527133 0.22173882 0.055413246 -0.51632214 0.24468231
        0.08550072 -0.4981289 0.27423096 0.10526657 -0.4757433 0.3065734
        0.11567593 -0.45192242 0.33863115 0.11853409 -0.42870426 0.36833048
        0.11586761 -0.40735722 0.394526 -9.699674 -1.0226114 3.2208812
        -10.031982 -1.0491642 3.302532 -10.374122 -1.0769465 3.384456
        -10.726434 -1.1061022 3.46638 -11.089308 -1.1367958 3.5479975
        -11.463192 -1.169216 3.628965 -11.848599 -1.2035787 3.7088952
        -12.246116 -1.2401297 3.7873511 -12.65641 -1.2791483 3.863838
        -13.080244 -1.3209523 3.9377935 -13.518475 -1.3659014 4.008578
        -13.972066 -1.4144024 4.075459 -14.442094 -1.4669156 4.1376038
        -14.929751 -1.5239606 4.1940575 -15.436348 -1.5861241 4.2437305
        -15.963312 -1.6540685 4.285384 -16.512188 -1.7285421 4.317609
        -17.084627 -1.8103911 4.338813 -17.682386 -1.9005746 4.3472066
        -18.307312 -2.000182 4.340789 -18.961332 -2.110455 4.317336
        -19.646442 -2.232816 4.274395 -20.364695 -2.3689005 4.2092705
        -21.11819 -2.5206008 4.119018 -21.909073 -2.690119 4.0004225
        -22.739494 -2.8800328 3.84999 -23.61162 -3.093377 3.6638987
        -24.52758 -3.3337471 3.4379704 -25.489405 -3.6054225 3.1676188
        -26.498943 -3.9135213 2.8478055 -27.557732 -4.264194 2.473003
        -28.666836 -4.664852 2.037172 -29.826637 -5.1244564 1.533761
        -31.036587 -5.65385 0.9557059 -32.29488 -6.2661314 0.29540735
        -33.597992 -6.9770336 -0.45535737 -34.939953 -7.805238 -1.3056046
        -36.311146 -8.772467 -2.265393 -37.69642 -9.90313 -3.345976
        -39.07216 -11.22314 -4.5595264 -40.402374 -12.757421 -5.9177866
        -41.633995 -14.525473 -7.4287014 -42.692688 -16.534483 -9.089991
        -43.481464 -18.769852 -10.879033 -43.885445 -21.183804 -12.739493
        -43.786583 -23.684557 -14.567406 -43.09068 -26.130434 -16.202093
        -41.764168 -28.33466 -17.429413 -39.871456 -30.085983 -18.004013
        -37.59686 -31.184895 -17.691181 -35.235092 -31.487516 -16.318605
        -33.144714 -30.94141 -13.819073 -31.676548 -29.597889 -10.244375
        -0.038508415 -0.5220337 0.11523914 0.02113247 -0.524086 0.13340569
        0.07072735 -0.51384354 0.16627121 0.10695171 -0.49504852 0.20782328
        0.1295023 -0.47160244 0.25245428 0.14008617 -0.44676495 0.29586077
        0.1413908 -0.42281866 0.3353212 0.13623047 -0.40111828 0.36949897
        -9.724169 -0.9214021 3.213782 -10.05767 -0.9444456 3.29434
        -10.401141 -0.96856797 3.3750854 -10.754945 -0.9938953 3.4557436
        -11.119496 -1.0205722 3.536007 -11.495267 -1.0487645 3.6155295
        -11.8828 -1.0786618 3.6939223 -12.282715 -1.1104803 3.7707465
        -12.695717 -1.1444659 3.8455038 -13.122605 -1.1808983 3.917628
        -13.564285 -1.2200947 3.9864743 -14.021772 -1.2624145 4.051305
        -14.496198 -1.3082645 4.1112757 -14.988819 -1.3581053 4.1654205
        -15.501019 -1.4124576 4.212634 -16.034307 -1.4719112 4.251657
        -16.590317 -1.537134 4.281053 -17.170813 -1.6088841 4.299197
        -17.777664 -1.6880234 4.3042564 -18.412867 -1.7755353 4.294176
        -19.078506 -1.8725466 4.2666645 -19.776777 -1.9803532 4.2191815
        -20.509966 -2.1004555 4.148922 -21.280447 -2.2345986 4.052799
        -22.090694 -2.3848295 3.927417 -22.943281 -2.5535588 3.7690487
        -23.840858 -2.7436502 3.5735676 -24.786165 -2.9585247 3.336402
        -25.781973 -3.2022936 3.0524535 -26.83105 -3.4799268 2.716015
        -27.936062 -3.7974656 2.3206792 -29.09947 -4.162288 1.85925
        -30.323372 -4.5834427 1.3236313 -31.60933 -5.072056 0.7046814
        -32.958096 -5.641814 -0.008013904 -34.369133 -6.3094883 -0.8265231
        -35.83981 -7.0954485 -1.7650988 -37.363945 -8.024029 -2.8408864
        -38.9293 -9.123486 -4.074538 -40.513657 -10.425165 -5.490323
        -42.07918 -11.96126 -7.1147966 -43.565342 -13.760374 -8.972731
        -44.881702 -15.84005 -11.078607 -45.903408 -18.195618 -13.422388
        -46.474186 -20.78585 -15.949556 -46.422924 -23.517675 -18.538471
        -45.5985 -26.235407 -20.98266 -43.921974 -28.722698 -22.990171
        -41.443977 -30.725086 -24.212328 -38.383354 -31.9955 -24.306053
        -35.119846 -32.352695 -23.016071 -32.12887 -31.731213 -20.245815
        -29.875616 -30.199722 -16.082836 -16.996601 -16.719332 -6.360136
        0.023879051 -0.4975567 0.03493023 0.08475876 -0.49096394 0.07926464
        0.12794971 -0.47465324 0.13485241 0.15353107 -0.4530859 0.19374561
        0.16421604 -0.42989635 0.2501378 0.16376114 -0.4075756 0.30056238
        0.15590763 -0.38751745 0.34353268 -9.743856 -0.8172864 3.20667
        -10.078348 -0.8366624 3.2862825 -10.422932 -0.8569549 3.366012
        -10.777987 -0.87827086 3.4455829 -11.143946 -0.90073365 3.524685
        -11.521306 -0.9244843 3.6029725 -11.910635 -0.9496844 3.6800544
        -12.312579 -0.97651786 3.7554898 -12.727876 -1.0051947 3.8287787
        -13.157361 -1.0359533 3.8993518 -13.601979 -1.0690647 3.9665596
        -14.062788 -1.1048366 4.029659 -14.540975 -1.1436168 4.087797
        -15.037848 -1.1858007 4.1399984 -15.554855 -1.231836 4.185144
        -16.093578 -1.2822304 4.2219553 -16.655739 -1.3375604 4.248974
        -17.243189 -1.3984828 4.2645454 -17.857916 -1.4657463 4.2667994
        -18.502035 -1.540208 4.253632 -19.17779 -1.6228538 4.2226915
        -19.887554 -1.7148237 4.1713595 -20.633827 -1.8174424 4.096731
        -21.419249 -1.9322604 3.9955907 -22.246609 -2.0611055 3.864376
        -23.118866 -2.2061439 3.6991446 -24.039154 -2.3699672 3.4954884
        -25.0108 -2.5556931 3.248465 -26.037315 -2.7670999 2.9524918
        -27.122383 -3.0087948 2.60122 -28.269817 -3.286435 2.1873913
        -29.483526 -3.6070051 1.7026659 -30.767435 -3.979179 1.1374048
        -32.12539 -4.413766 0.48034775 -33.560963 -4.924264 -0.28184798
        -35.077057 -5.5274954 -1.1653196 -36.675056 -6.244295 -2.1899924
        -38.35316 -7.1001053 -3.3808403 -40.10341 -8.125298 -4.7691784
        -41.906715 -9.354746 -6.3934 -43.725506 -10.826084 -8.298016
        -45.493908 -12.575637 -10.529173 -47.106754 -14.630899 -13.12422
        -48.410797 -16.998571 -16.093023 -49.20429 -19.647789 -19.389837
        -49.25384 -22.490835 -22.879019 -48.337173 -25.36703 -26.304344
        -46.313686 -28.040262 -29.28027 -43.2085 -30.2216 -31.326376
        -39.275528 -31.622263 -31.955761 -34.996384 -32.026505 -30.800013
        -30.992104 -31.35611 -27.721409 -27.871452 -29.695278 -22.855553
        -26.080656 -27.261377 -16.558664 0.020084381 -0.4397831 -0.06382942
        0.093616486 -0.44139767 -0.008273125 0.14472008 -0.43216515 0.061730385
        0.17391491 -0.41676044 0.13541985 0.1850481 -0.39900875 0.20519638
        0.18312263 -0.38148737 0.26681423 0.17282963 -0.3656435 0.3186288
        -9.7592125 -0.7108023 3.200078 -10.094503 -0.72637904 3.2789023
        -10.439986 -0.74269944 3.357787 -10.796055 -0.7598509 3.4364548
        -11.163159 -0.7779335 3.514596 -11.541815 -0.79706234 3.5918632
        -11.932609 -0.81736875 3.6678643 -12.336212 -0.83900297 3.7421575
        -12.753391 -0.8621361 3.8142405 -13.185008 -0.88696283 3.8835418
        -13.632042 -0.91370445 3.9494083 -14.095589 -0.9426123 4.011092
        -14.576876 -0.97397166 4.0677342 -15.077264 -1.0081064 4.1183505
        -15.59825 -1.045384 4.16181 -16.141483 -1.0862224 4.1968193
        -16.708752 -1.1310972 4.2219014 -17.301992 -1.1805503 4.235376
        -17.923285 -1.2352024 4.23534 -18.57486 -1.295766 4.21965
        -19.259092 -1.3630633 4.185901 -19.978514 -1.4380473 4.1314073
        -20.735815 -1.5218319 4.0531774 -21.533867 -1.6157248 3.9478846
        -22.375748 -1.7212758 3.81182 -23.264763 -1.8403299 3.64085
        -24.20449 -1.9751077 3.4303198 -25.198793 -2.128295 3.1749537
        -26.251873 -2.30317 2.8687341 -27.36827 -2.5037584 2.504728
        -28.552904 -2.7350428 2.0748951 -29.811073 -3.0032318 1.5698335
        -31.148497 -3.31611 0.9784434 -32.571304 -3.6834893 0.28743806
        -34.08596 -4.117771 -0.51937425 -35.69896 -4.6346254 -1.4621563
        -37.41603 -5.253767 -2.5665393 -39.240356 -5.9997163 -3.865536
        -41.169224 -6.9023848 -5.4016476 -43.18815 -7.997079 -7.2284546
        -45.26189 -9.323345 -9.410393 -47.32176 -10.921596 -12.018268
        -49.250534 -12.826262 -15.117323 -50.86834 -15.05405 -18.744083
        -51.927208 -17.586376 -22.86927 -52.126373 -20.347624 -27.349415
        -51.16191 -23.184769 -31.878914 -48.81732 -25.860046 -35.968266
        -45.07969 -28.071106 -38.98183 -40.235092 -29.507381 -40.256733
        -34.878487 -29.93248 -39.28238 -29.799294 -29.259964 -35.86795
        -25.773247 -27.583462 -30.208593 -23.35535 -25.143007 -22.808931
        -16.075676 -15.80936 -10.144237 0.09211731 -0.3621168 -0.083717346
        0.15224648 -0.36548424 -0.0018539429 0.1861496 -0.3613701 0.084649086
        0.19877815 -0.353467 0.16623163 0.19635963 -0.34435987 0.23773146
        0.18457031 -0.33558035 0.29731417 -9.770649 -0.6024694 3.1945176
        -10.106554 -0.61414117 3.2727196 -10.452728 -0.6263756 3.3509383
        -10.809579 -0.6392389 3.4288967 -11.177567 -0.6528074 3.5062833
        -11.557225 -0.6671684 3.5827506 -11.949156 -0.68242204 3.657906
        -12.35405 -0.6986825 3.7313066 -12.772691 -0.7160802 3.8024487
        -13.205969 -0.7347634 3.8707588 -13.654888 -0.754901 3.9355812
        -14.120575 -0.77668494 3.996164 -14.604289 -0.80033314 4.051644
        -15.107429 -0.8260934 4.1010284 -15.63154 -0.8542475 4.1431794
        -16.178314 -0.8851159 4.1767898 -16.749603 -0.9190643 4.200368
        -17.347406 -0.95650995 4.2122126 -17.973883 -0.99793214 4.2103963
        -18.631353 -1.0438818 4.1927404 -19.322304 -1.0949967 4.1568
        -20.049397 -1.1520184 4.099832 -20.815475 -1.2158157 4.018776
        -21.623611 -1.2874136 3.9102092 -22.47712 -1.368027 3.770314
        -23.379599 -1.4591129 3.5947886 -24.334995 -1.5624294 3.3787725
        -25.347645 -1.6801143 3.1167178 -26.422327 -1.8147867 2.8022356
        -27.564339 -1.9696836 2.4279017 -28.779556 -2.1488347 1.9850051
        -30.074524 -2.357295 1.4632277 -31.45657 -2.6014514 0.85019517
        -32.933895 -2.8894196 0.13083014 -34.515648 -3.231554 -0.7136057
        -36.211716 -3.6410766 -1.7069254 -38.03203 -4.134818 -2.8800054
        -39.984745 -4.734007 -4.273362 -42.07267 -5.464968 -5.9401245
        -44.286705 -6.3594294 -7.948632 -46.595352 -7.453893 -10.383128
        -48.929512 -8.787165 -13.33974 -51.163254 -10.394826 -16.913612
        -53.09407 -12.298935 -21.1717 -54.43149 -14.491959 -26.107086
        -54.80906 -16.91551 -31.575464 -53.839043 -19.438772 -37.22746
        -51.22233 -21.847681 -42.469696 -46.89909 -23.860626 -46.50277
        -41.181255 -25.181217 -48.471333 -34.77786 -25.580194 -47.705635
        -28.6539 -24.972816 -43.954082 -23.759998 -23.450565 -37.47786
        -20.762451 -21.24707 -28.946125 -19.905098 -18.657598 -19.19292
        0.0748291 -0.25648403 -0.13140488 0.14520645 -0.2774477 -0.044181824
        0.18549538 -0.28934145 0.049901962 0.20147514 -0.295362 0.13914204
        0.2003746 -0.29796314 0.21732092 0.18874836 -0.2987728 0.2823012
        -9.778498 -0.49278438 3.1904263 -10.114834 -0.5004722 3.2681797
        -10.461495 -0.5085349 3.3459196 -10.818897 -0.51701725 3.4233675
        -11.187513 -0.5259704 3.5002127 -11.567883 -0.5354532 3.5761065
        -11.960621 -0.54553306 3.6506557 -12.366432 -0.5562871 3.7234173
        -12.786117 -0.5678031 3.7938857 -13.220579 -0.5801813 3.8614874
        -13.670844 -0.5935356 3.9255638 -14.138061 -0.607996 3.9853604
        -14.623511 -0.6237097 4.0400095 -15.128625 -0.6408448 4.0885158
        -15.654976 -0.6595922 4.129731 -16.204296 -0.68016976 4.162343
        -16.778475 -0.702826 4.1848464 -17.37956 -0.72784525 4.195525
        -18.009777 -0.75555444 4.192434 -18.671505 -0.78633 4.173369
        -19.367315 -0.82060874 4.135853 -20.099958 -0.8588996 4.0771036
        -20.87241 -0.9018 3.994007 -21.68788 -0.9500171 3.8830733
        -22.54986 -1.0043892 3.7403936 -23.462175 -1.0659263 3.5615497
        -24.429052 -1.1358494 3.3415236 -25.455181 -1.2156475 3.0745606
        -26.545797 -1.3071512 2.7539926 -27.706774 -1.4126301 2.3720193
        -28.944736 -1.5349205 1.919416 -30.267208 -1.6775953 1.3851559
        -31.682781 -1.8451887 0.7558732 -33.20134 -2.0434942 0.015084267
        -34.834183 -2.279944 -0.8579665 -36.593998 -2.564095 -1.8900135
        -38.494217 -2.9082024 -3.116172 -40.54728 -3.327864 -4.583101
        -42.760857 -3.84263 -6.352744 -45.130898 -4.476383 -8.505861
        -47.629993 -5.2570744 -11.143712 -50.1901 -6.2151814 -14.384649
        -52.679893 -7.37986 -18.350847 -54.87997 -8.771429 -23.138115
        -56.465714 -10.38916 -28.76286 -57.015224 -12.194305 -35.085094
        -56.066982 -14.091927 -41.72176 -53.245934 -15.920147 -47.990204
        -48.445194 -17.460157 -52.94307 -41.99454 -18.477592 -55.54634
        -34.70221 -18.789099 -54.979446 -27.690483 -18.326046 -50.932285
        -22.06731 -17.16166 -43.7282 -18.59701 -15.483555 -34.19136
        -17.537674 -13.526538 -23.338654 0.038179398 -0.13644314 -0.13672638
        0.11969757 -0.17722368 -0.05427742 0.16834831 -0.2076559 0.03896141
        0.19009209 -0.22994423 0.12928963 0.19277573 -0.24620366 0.2092185
        0.18355846 -0.25812984 0.27596235 -9.782994 -0.38222122 3.1881337
        -10.119583 -0.3858725 3.265619 -10.466532 -0.38970667 3.343072
        -10.82426 -0.393746 3.4202147 -11.193245 -0.3980163 3.4967358
        -11.574034 -0.4025471 3.5722864 -11.967251 -0.40737233 3.6464734
        -12.373606 -0.41253084 3.718852 -12.793909 -0.41806692 3.788918
        -13.229076 -0.42403117 3.856095 -13.680142 -0.43048134 3.9197247
        -14.148271 -0.43748307 3.9790504 -14.634757 -0.44511113 4.033202
        -15.141048 -0.45345092 4.0811806 -15.668738 -0.4625995 4.121835
        -16.219582 -0.47266772 4.1538463 -16.79549 -0.48378244 4.175702
        -17.398546 -0.49608892 4.1856785 -18.031004 -0.5097544 4.181816
        -18.69529 -0.5249717 4.1618986 -19.39402 -0.5419651 4.1234274
        -20.13001 -0.56099606 4.063596 -20.906301 -0.5823719 3.9792576
        -21.726198 -0.60645765 3.8668783 -22.593298 -0.6336842 3.7224963
        -23.511572 -0.6645733 3.5416183 -24.485415 -0.69975543 3.3191295
        -25.51974 -0.7399999 3.0491452 -26.620062 -0.7862525 2.7248242
        -27.792624 -0.83968586 2.338128 -29.04452 -0.90176654 1.8795131
        -30.383892 -0.9743407 1.3375032 -31.820147 -1.0597523 0.69810486
        -33.36423 -1.1609962 -0.056058526 -35.02885 -1.2819158 -0.94703466
        -36.82851 -1.4274561 -2.003436 -38.77895 -1.6039636 -3.2631195
        -40.89545 -1.8195271 -4.776748 -43.18903 -2.0843115 -6.612052
        -45.659145 -2.410768 -8.858036 -48.28147 -2.8135448 -11.627358
        -50.989265 -3.3087373 -15.053514 -53.648415 -3.9119658 -19.277397
        -56.029274 -4.634556 -24.415344 -57.785316 -5.477167 -30.501263
        -58.457928 -6.420794 -37.400314 -57.5354 -7.4167 -44.708817
        -54.58934 -8.379884 -51.68399 -49.47815 -9.193695 -57.275898
        -42.5414 -9.732168 -60.323833 -34.654728 -9.897145 -59.899067
        -27.04918 -9.650797 -55.64893 -20.942026 -9.031997 -47.941322
        -17.16453 -8.142747 -37.71127 -15.982651 -7.110068 -26.105362
        -0.11429787 -0.055523396 -0.17120743 0.07528305 -0.07952213 -0.025928497
        0.13381386 -0.12718582 0.056429863 0.16368866 -0.1651268 0.13988304
        0.17272758 -0.19477916 0.2155633 0.16834068 -0.21771836 0.27971268
        -9.784283 -0.27123448 3.1878438 -10.120949 -0.27082348 3.2652445
        -10.467984 -0.27040106 3.3426068 -10.825811 -0.26996702 3.4196525
        -11.19491 -0.26952127 3.4960701 -11.575829 -0.26906368 3.5715108
        -11.969193 -0.26859435 3.645581 -12.375718 -0.2681133 3.7178361
        -12.796215 -0.26762086 3.7877715 -13.231604 -0.26711732 3.8548102
        -13.682921 -0.2666032 3.9182932 -14.151338 -0.26607922 3.9774637
        -14.638152 -0.26554638 4.0314507 -15.144817 -0.26500592 4.0792537
        -15.672933 -0.26445955 4.1197205 -16.22426 -0.26390925 4.151529
        -16.80072 -0.26335746 4.173165 -17.40441 -0.26280743 4.182902
        -18.037582 -0.26226303 4.178775 -18.702688 -0.2617286 4.1585627
        -19.402355 -0.26121002 4.1197596 -20.13942 -0.26071358 4.05955
        -20.916945 -0.26024702 3.974776 -21.738266 -0.2598209 3.861889
        -22.607016 -0.25944236 3.7169065 -23.527208 -0.25912398 3.5353117
        -24.503298 -0.2588779 3.3119555 -25.540268 -0.25871623 3.0409079
        -26.643724 -0.25865027 2.7152689 -27.82003 -0.25868887 2.3269207
        -29.076431 -0.25883478 1.8662102 -30.42127 -0.2590801 1.3215111
        -31.86422 -0.25939846 0.67862123 -33.41657 -0.25973412 -0.080135226
        -35.091484 -0.25998327 -0.9772341 -36.904057 -0.25997138 -2.0419047
        -38.870773 -0.2594137 -3.312909 -41.00785 -0.25786668 -4.842227
        -43.327366 -0.25466263 -6.699483 -45.829933 -0.24883232 -8.9763775
        -48.492214 -0.23902395 -11.789301 -51.247875 -0.22347738 -15.276678
        -53.9619 -0.20009603 -19.585506 -56.401302 -0.16676845 -24.838829
        -58.212463 -0.12200847 -31.076244 -58.924908 -0.065948695 -38.164627
        -58.01062 -0.0013498962 -45.693527 -55.023933 0.065824896 -52.900574
        -49.811733 0.12679651 -58.701977 -42.71638 0.17111361 -61.89542
        -34.635506 0.18807381 -61.516335 -26.836641 0.17544979 -57.197956
        -20.57262 0.1381306 -49.32292 -16.696243 0.08403751 -38.863277
        -15.475912 0.022815585 -27.008493 -2.6215954 0.051058143 -2.2639542
        0.016170502 -0.00091052055 0.03931427 0.08473778 -0.060200572 0.10163879
        0.12414551 -0.10978816 0.17067528 0.14147949 -0.1500248 0.23629618
        0.14394379 -0.18202284 0.2935648 -9.782413 -0.16026787 3.1896243
        -10.118979 -0.15579577 3.2671254 -10.465903 -0.15111797 3.3445945
        -10.823604 -0.14621185 3.4217527 -11.19256 -0.14105141 3.4982886
        -11.573318 -0.13560696 3.5738533 -11.9665 -0.12984462 3.6480536
        -12.37282 -0.12372585 3.7204452 -12.793084 -0.11720672 3.790522
        -13.228209 -0.11023733 3.8577094 -13.679231 -0.10276116 3.921347
        -14.147308 -0.094713934 3.9806786 -14.63374 -0.08602276 4.0348344
        -15.139973 -0.07660497 4.0828133 -15.667597 -0.06636666 4.1234655
        -16.218367 -0.055201095 4.15547 -16.794195 -0.042986535 4.1773148
        -17.397163 -0.029584 4.187274 -18.029522 -0.0148341 4.183389
        -18.693697 0.0014471654 4.163441 -19.392302 0.019472446 4.1249313
        -20.12815 0.039490275 4.0650506 -20.90428 0.061792526 3.980652
        -21.723991 0.086722955 3.8681998 -22.590878 0.11469796 3.7237287
        -23.508904 0.14621392 3.5427465 -24.48245 0.18187663 3.3201349
        -25.51643 0.22243014 3.0500083 -26.616335 0.26879674 2.7255244
        -27.78839 0.32213044 2.3386483 -29.039663 0.38388973 1.8798369
        -30.378263 0.45593315 1.3376261 -31.813541 0.540652 0.6980378
        -33.356377 0.6411441 -0.056274235 -35.019382 0.7614464 -0.9473039
        -36.816925 0.9068325 -2.0035708 -38.76457 1.084184 -3.2627835
        -40.87734 1.3024228 -4.775358 -43.16593 1.5729645 -6.608635
        -45.629395 1.9100735 -8.850996 -48.24294 2.3309052 -11.614166
        -50.939358 2.8548007 -15.030237 -53.58432 3.5012023 -19.238203
        -55.9485 4.2852244 -24.352022 -57.68678 5.2100782 -30.403082
        -58.343704 6.2563 -37.25491 -57.412518 7.3698835 -44.5045
        -54.470737 8.454874 -51.41392 -49.381084 9.3787 -56.942997
        -42.4826 9.996546 -59.944103 -34.64499 10.192508 -59.500126
        -27.09018 9.924252 -55.26308 -21.02431 9.238901 -47.596504
        -17.271809 8.252644 -37.424427 -16.098202 7.1096396 -25.880943
        -0.25247383 0.14520836 0.04404068 -0.049280167 0.04548502 0.131567
        0.027406693 -0.016781092 0.16830826 0.07605362 -0.07143164 0.2177496
        0.10231972 -0.11740041 0.2689867 0.11267853 -0.15496409 0.3160205
        -9.777337 -0.049765065 3.1934059 -10.113626 -0.04125981 3.2711918
        -10.460238 -0.032357007 3.3489633 -10.817589 -0.023011787 3.4264421
        -11.186146 -0.013172669 3.503317 -11.566454 -0.002780689 3.5792396
        -11.959126 0.008231442 3.653816 -12.364865 0.019940514 3.7266023
        -12.784472 0.03243398 3.7970939 -13.218851 0.0458111 3.864715
        -13.669025 0.060184937 3.9288077 -14.136142 0.07568359 3.9886167
        -14.621485 0.092452645 4.043274 -15.12648 0.11065739 4.0917816
        -15.6527 0.13048543 4.132993 -16.201878 0.1521503 4.165592
        -16.775896 0.17589538 4.1880727 -17.376808 0.20199877 4.19872
        -18.006826 0.23077926 4.1955833 -18.668335 0.26260424 4.1764584
        -19.363895 0.29789898 4.1388655 -20.09626 0.3371591 4.0800204
        -20.868391 0.380966 3.9968057 -21.683496 0.4300057 3.8857265
        -22.545053 0.48510063 3.7428727 -23.456879 0.54723525 3.5638232
        -24.423178 0.61760414 3.3435547 -25.448624 0.6976697 3.0763106
        -26.538422 0.78923595 2.755423 -27.698406 0.89454967 2.3730922
        -28.935152 1.0164328 1.9201028 -30.256113 1.1584607 1.3854425
        -31.66979 1.3251995 0.7557813 -33.18593 1.5225211 0.014692128
        -34.815655 1.7580135 -0.8584782 -36.5714 2.0415025 -1.8902941
        -38.466263 2.3856826 -3.1155884 -40.512222 2.8068366 -4.5805635
        -42.71637 3.325536 -6.3464384 -45.073917 3.9671235 -8.492845
        -47.556633 4.7615376 -11.119318 -50.095753 5.741764 -14.341742
        -52.559605 6.93981 -18.27891 -54.72953 8.37866 -23.022476
        -56.283638 10.0591 -28.584654 -56.805687 11.94148 -34.82277
        -55.842987 13.926378 -41.355366 -53.03065 15.843523 -47.508453
        -48.269188 17.462612 -52.351738 -41.887802 18.536392 -54.87349
        -34.68435 18.870712 -54.272736 -27.763569 18.393785 -50.24751
        -22.214691 17.183702 -43.113934 -18.790352 15.437568 -33.67759
        -17.747532 13.401889 -22.934 -0.21619034 0.10950565 0.25727844
        -0.11095619 0.05436802 0.23556137 -0.03004837 -0.0017695427 0.24620914
        0.025627136 -0.05411291 0.2744274 0.059846878 -0.10013437 0.30936337
        0.07789135 -0.1390202 0.34436512 -9.768914 0.05981961 3.198985
        -10.10475 0.072303325 3.2772355 -10.45085 0.085371844 3.355502
        -10.80762 0.099091694 3.4335065 -11.175524 0.11353926 3.5109382
        -11.555089 0.12880203 3.5874484 -11.946922 0.14497991 3.6626449
        -12.351708 0.16218683 3.736083 -12.770236 0.1805526 3.8072593
        -13.203389 0.20022479 3.8755996 -13.652172 0.22137098 3.9404469
        -14.117711 0.24418144 4.0010486 -14.601265 0.2688722 4.0565405
        -15.104229 0.29568824 4.105929 -15.628146 0.32490775 4.148073
        -16.17471 0.35684705 4.1816664 -16.745762 0.3918663 4.2052126
        -17.343304 0.43037653 4.2170105 -17.96949 0.4728486 4.215128
        -18.626637 0.519824 4.1973853 -19.317223 0.5719288 4.1613326
        -20.043898 0.6298908 4.1042237 -20.809507 0.6945623 4.0229936
        -21.617107 0.7669469 3.914215 -22.469995 0.8482419 3.774065
        -23.371754 0.93987787 3.5982382 -24.32631 1.0435848 3.3818667
        -25.337961 1.1614702 3.119401 -26.41145 1.2961233 2.80445
        -27.552025 1.4507517 2.4295926 -28.765488 1.6293612 1.9861289