<?xml version="1.0"?>
<VTKFile type="StructuredGrid" version="0.1" byte_order="LittleEndian" header_type="UInt32" compressor="vtkZLibDataCompressor">
  <StructuredGrid WholeExtent="0 60 0 20 0 20">
  <Piece Extent="0 60 0 20 0 20">
    <PointData Vectors="B_total">
      <DataArray type="Float32" Name="B_total" NumberOfComponents="3" format="ascii" RangeMin="0" RangeMax="56808.47281919748">
        -10.373336 -1.5318704 3.1679459 -10.718968 -1.5738585 3.256221
        -11.073549 -1.6173487 3.3452408 -11.437274 -1.6625055 3.434686
        -11.81037 -1.7095201 3.524194 -12.193114 -1.7586129 3.613354
        -12.585831 -1.8100371 3.7016995 -12.988904 -1.8640826 3.7887037
        -13.402784 -1.9210792 3.8737693 -13.827995 -1.981401 3.9562225
        -14.265137 -2.0454714 4.035301 -14.714895 -2.113767 4.110145
        -15.17804 -2.186823 4.1797853 -15.655429 -2.2652407 4.24313
        -16.148008 -2.3496919 4.298957 -16.656801 -2.4409282 4.345898
        -17.182903 -2.5397897 4.382432 -17.72747 -2.6472144 4.406878
        -18.291698 -2.764253 4.4173865 -18.876808 -2.8920825 4.411943
        -19.48401 -3.0320253 4.388371 -20.11448 -3.1855745 4.3443394
        -20.76932 -3.3544195 4.277375 -21.449526 -3.540482 4.1848826
        -22.15593 -3.7459574 4.064163 -22.88915 -3.9733615 3.9124367
        -23.64951 -4.2255907 3.72687 -24.436934 -4.505983 3.504605
        -25.250832 -4.8183928 3.2428098 -26.089909 -5.1672707 2.9387436
        -26.95196 -5.557748 2.5898716 -27.833603 -5.9957204 2.194038
        -28.729973 -6.4879265 1.7497083 -29.634426 -7.0420055 1.2563102
        -30.538202 -7.6664796 0.7146484 -31.430138 -8.370653 0.12738514
        -32.29643 -9.164302 -0.5004403 -33.1204 -10.057062 -1.1608891
        -33.882362 -11.057373 -1.8426042 -34.55955 -12.17078 -2.5302505
        -35.12619 -13.397493 -3.2038088 -35.554054 -14.729145 -3.8375041
        -35.81389 -16.14494 -4.398243 -35.878426 -17.60776 -4.8435555
        -35.727726 -19.061228 -5.119526 -35.35698 -20.42902 -5.159672
        -34.786064 -21.617966 -4.886162 -34.068615 -22.525764 -4.2143292
        -33.297256 -23.052952 -3.0604582 0.15358174 -0.3102579 0.36480236
        0.16152167 -0.27583504 0.3926282 0.15776062 -0.24275875 0.42264175
        0.1433196 -0.21445084 0.45160437 0.12084007 -0.19340038 0.47681022
        0.09384966 -0.18074799 0.49656844 0.06589365 -0.17629147 0.5103158
        0.03986025 -0.178792 0.5184554 0.017632484 -0.18645954 0.522001
        0.000072956085 -0.19739771 0.52220565 -0.012762547 -0.20993519 0.5202688
        -0.021353722 -0.22277355 0.5171937 -10.418492 -1.4269258 3.159652
        -10.76558 -1.4653926 3.246031 -11.121774 -1.505229 3.3329823
        -11.487293 -1.5465859 3.420182 -11.862395 -1.589638 3.5072622
        -12.247387 -1.6345876 3.5938065 -12.642629 -1.6816676 3.6793435
        -13.048542 -1.7311442 3.7633405 -13.465623 -1.7833211 3.8451943
        -13.894437 -1.838544 3.9242241 -14.335634 -1.8972033 3.9996595
        -14.789954 -1.9597415 4.070631 -15.258226 -2.0266554 4.136157
        -15.74137 -2.0985053 4.1951327 -16.2404 -2.17592 4.2463183
        -16.756413 -2.2596056 4.288325 -17.29059 -2.3503551 4.3196044
        -17.844181 -2.4490607 4.3384433 -18.418484 -2.5567265 4.3429527
        -19.01484 -2.674487 4.331066 -19.634598 -2.803629 4.300542
        -20.279097 -2.9456172 4.2489653 -20.949633 -3.1021283 4.173755
        -21.64743 -3.2750885 4.0721755 -22.37359 -3.4667268 3.9413452
        -23.129051 -3.6796305 3.7782485 -23.914522 -3.9168181 3.579747
        -24.730383 -4.181821 3.3425956 -25.57657 -4.478784 3.0634663
        -26.452417 -4.8125796 2.7389965 -27.356443 -5.1889353 2.3658652
        -28.28611 -5.614581 1.9409214 -29.237516 -6.097398 1.4613734
        -30.20507 -6.646559 0.9250355 -31.181108 -7.272627 0.3306372
        -32.155483 -7.987542 -0.3218211 -33.11505 -8.804409 -1.0306923
        -34.043083 -9.736946 -1.7922583 -34.918495 -10.798368 -2.600196
        -35.714943 -11.999504 -3.4447932 -36.399952 -13.345886 -4.3116355
        -36.93447 -14.833698 -5.1794453 -37.273678 -16.444635 -6.016807
        -37.37021 -18.140356 -6.7779016 -37.18107 -19.857584 -7.3980746
        -36.67885 -21.505919 -7.7909336 -35.86639 -22.970524 -7.8493676
        -34.791714 -24.121675 -7.452654 -33.557854 -24.831272 -6.480074
        -32.321674 -24.993233 -4.8285 -1.7931845 -1.7821159 0.20252037
        0.19177675 -0.20394516 0.4217496 0.16973352 -0.17141914 0.46059036
        0.13768435 -0.14924717 0.49298477 0.10087967 -0.13846302 0.51678777
        0.06428051 -0.13817883 0.53168344 0.031648636 -0.14626408 0.53874993
        0.005126953 -0.1600132 0.5398307 -0.014611244 -0.17682552 0.5369359
        -0.02795744 -0.19457483 0.531837 -0.035912514 -0.21174765 0.5258795
        -10.450836 -1.31567 3.1489568 -10.798985 -1.3504025 3.2335818
        -11.156378 -1.3863662 3.3186314 -11.523258 -1.4236975 3.4037783
        -11.899911 -1.4625543 3.4886513 -12.286671 -1.5031198 3.5728312
        -12.683931 -1.5456048 3.6558437 -13.092151 -1.590251 3.7371526
        -13.511861 -1.6373346 3.816152 -13.943672 -1.6871699 3.892157
        -14.388281 -1.7401135 3.9643922 -14.846476 -1.796569 4.0319824
        -15.319139 -1.8569922 4.0939393 -15.807255 -1.9218981 4.149149
        -16.3119 -1.9918661 4.196358 -16.834246 -2.0675504 4.234163
        -17.375555 -2.1496892 4.2609963 -17.937166 -2.2391162 4.2751174
        -18.52049 -2.3367772 4.274604 -19.126987 -2.443748 4.2573447
        -19.75815 -2.5612571 4.2210402 -20.41549 -2.690716 4.163198
        -21.100508 -2.833754 4.0811343 -21.814669 -2.9922633 3.9719782
        -22.55937 -3.1684544 3.8326685 -23.335918 -3.3649225 3.6599545
        -24.145445 -3.5847335 3.450389 -24.988853 -3.8315177 3.200326
        -25.866707 -4.109601 2.905921 -26.779095 -4.42414 2.56314
        -27.725454 -4.7813067 2.167801 -28.70433 -5.188484 1.7156345
        -29.713108 -5.654498 1.202386 -30.747673 -6.1898518 0.62395394
        -31.801998 -6.806948 -0.023460917 -32.867584 -7.5202093 -0.7431876
        -33.932735 -8.346034 -1.5379107 -34.981476 -9.302347 -2.4094152
        -35.992115 -10.407598 -3.3581386 -36.935326 -11.67879 -4.3821993
        -37.772003 -13.128262 -5.475482 -38.451355 -14.75885 -6.6241956
        -38.910545 -16.557428 -7.801485 -39.0776 -18.487225 -8.960157
        -38.87966 -20.480337 -10.024624 -38.258205 -22.432869 -10.884712
        -37.190643 -24.206326 -11.395218 -35.714 -25.638397 -11.385509
        -33.942688 -26.564552 -10.680723 -32.070217 -26.84726 -9.131737
        -30.348234 -26.404585 -6.644583 -3.0594559 -2.9698715 0.024141312
        0.1982584 -0.11521912 0.48332024 0.15306759 -0.093732834 0.5237789
        0.1034832 -0.08726215 0.55095863 0.056344986 -0.09383774 0.56522465
        0.01634407 -0.10998535 0.56888604 -0.014322281 -0.1318388 0.56511533
        -0.03549671 -0.15598345 0.55699277 -0.04832077 -0.1798749 0.54700726
        -0.05453968 -0.20189476 0.53687644 -10.472443 -1.1984053 3.135412
        -10.821329 -1.2292143 3.2184122 -11.179583 -1.2611116 3.301713
        -11.547465 -1.2942183 3.384985 -11.925287 -1.3286753 3.4678562
        -12.313412 -1.3646454 3.5499058 -12.71226 -1.4023167 3.6306589
        -13.122324 -1.4419049 3.7095785 -13.544169 -1.483657 3.7860577
        -13.978446 -1.5278542 3.8594098 -14.425893 -1.5748165 3.9288588
        -14.887344 -1.6249062 3.993526 -15.363735 -1.6785343 4.0524197
        -15.856103 -1.7361653 4.10442 -16.365587 -1.7983247 4.1482673
        -16.893435 -1.865607 4.1825457 -17.44098 -1.9386866 4.205674
        -18.009655 -2.0183284 4.215891 -18.600975 -2.1054056 4.2112455
        -19.216518 -2.2009163 4.18959 -19.85793 -2.3060095 4.148571
        -20.526888 -2.422014 4.085627 -21.225107 -2.550476 3.9979792
        -21.954304 -2.6932073 3.8826268 -22.71619 -2.8523428 3.7363367
        -23.512451 -3.0304143 3.5556273 -24.344679 -3.230441 3.3367457
        -25.214354 -3.4560432 3.0756433 -26.122742 -3.7115803 2.7679434
        -27.070799 -4.002326 2.408918 -28.059021 -4.3346786 1.9934647
        -29.087255 -4.7164125 1.5160964 -30.154474 -5.156987 0.97093654
        -31.258448 -5.6678762 0.3517012 -32.39531 -6.262912 -0.34834775
        -33.55891 -6.9585795 -1.1364825 -34.739857 -7.774156 -2.020634
        -35.924007 -8.731508 -3.0094209 -37.090214 -9.854257 -4.111906
        -38.207317 -11.165961 -5.336595 -39.23033 -12.686775 -6.6889935
        -40.096645 -14.428061 -8.166858 -40.723633 -16.384647 -9.752285
        -41.010334 -18.52491 -11.40047 -40.84645 -20.779995 -13.026408
        -40.131813 -23.035372 -14.493091 -38.806625 -25.12922 -15.607439
        -36.887936 -26.863703 -16.131464 -34.500046 -28.031788 -15.813169
        -31.88275 -28.456816 -14.434303 -29.364504 -28.033798 -11.860865
        -27.30158 -26.755903 -8.074989 0.22698593 -0.045955658 0.5275898
        0.16427898 -0.028072357 0.57604694 0.09866142 -0.02926445 0.6045122
        0.039265633 -0.045890808 0.6148205 -0.0083732605 -0.072730064 0.6113601
        -0.042381287 -0.10455608 0.59925604 -0.063607216 -0.13716364 0.583029
        -0.07435799 -0.16771746 0.56597877 -0.07738876 -0.19467354 0.55013704
        -10.485525 -1.0755018 3.119474 -10.834896 -1.1022166 3.2009854
        -11.193741 -1.1298734 3.2826958 -11.56234 -1.1585772 3.3642757
        -11.941025 -1.1884509 3.445353 -12.330182 -1.2196364 3.5255072
        -12.73026 -1.252298 3.604264 -13.141778 -1.2866242 3.6810868
        -13.565334 -1.3228308 3.7553697 -14.001614 -1.3611642 3.826427
        -14.451393 -1.4019051 3.8934827 -14.915548 -1.4453722 3.955659
        -15.395062 -1.4919273 4.011962 -15.891023 -1.5419803 4.06127
        -16.404629 -1.5959966 4.102319 -16.937187 -1.6545045 4.133686
        -17.490112 -1.7181046 4.153779 -18.064922 -1.7874825 4.1608214
        -18.663223 -1.8634231 4.152839 -19.28672 -1.9468294 4.1276526
        -19.937191 -2.0387466 4.0828633 -20.616493 -2.1403909 4.015846
        -21.326542 -2.2531872 3.9237335 -22.06931 -2.3788173 3.8034072
        -22.84682 -2.5192785 3.6514702 -23.661146 -2.6769583 3.4642215
        -24.514362 -2.8547294 3.2376144 -25.408537 -3.0560687 2.9672034
        -26.345688 -3.2852075 2.6480877 -27.327705 -3.5473216 2.2748365
        -28.356249 -3.848767 1.8414054 -29.432636 -4.1973763 1.3410363
        -30.557642 -4.602811 0.7661249 -31.73125 -5.0769877 0.10802124
        -32.952236 -5.6345363 -0.64325535 -34.217457 -6.293252 -1.4994199
        -35.52071 -7.074453 -2.4744196 -36.85082 -8.0030575 -3.58491
        -38.188644 -9.107074 -4.850381 -39.50279 -10.416073 -6.292349
        -40.743954 -11.958026 -7.931636 -41.838608 -13.753727 -9.782363
        -42.683743 -15.808125 -11.841325 -43.146038 -18.098345 -14.071836
        -43.070457 -20.55953 -16.383245 -42.30346 -23.071758 -18.610525
        -40.73374 -25.454382 -20.503197 -38.345512 -27.475866 -21.73596
        -35.268147 -28.885107 -21.951172 -31.796247 -29.462383 -20.83152
        -28.357384 -29.07524 -18.181736 -25.425766 -27.716732 -13.984586
        -23.410124 -25.506645 -8.40067 0.16763783 0.042812347 0.65729046
        0.08286381 0.030090332 0.6828222 0.010149002 0.00025558472 0.68380165
        -0.044490814 -0.039398193 0.6678791 -0.080163956 -0.08229923 0.64286995
        -0.099354744 -0.12362576 0.61501515 -0.10599613 -0.16054869 0.5884192
        -0.10410786 -0.19184017 0.56524044 -10.49227 -0.94746214 3.1022723
        -10.841941 -0.9699307 3.1824527 -11.201173 -0.993191 3.2627516
        -11.570266 -1.0173321 3.34284 -11.949571 -1.0424577 3.422346
        -12.339494 -1.0686883 3.5008512 -12.740504 -1.0961629 3.5778818
        -13.153151 -1.1250418 3.6529043 -13.578055 -1.1555082 3.7253141
        -14.015935 -1.1877714 3.7944279 -14.4676 -1.2220708 3.8594708
        -14.933962 -1.2586778 3.9195666 -15.416047 -1.2979015 3.973723
        -15.914988 -1.3400934 4.0208173 -16.432035 -1.3856522 4.0595837
        -16.968554 -1.4350328 4.088595 -17.526024 -1.4887537 4.1062512
        -18.106045 -1.547409 4.1107645 -18.710316 -1.6116812 4.1001425
        -19.340645 -1.6823596 4.0721774 -19.998947 -1.7603614 4.024433
        -20.687237 -1.8467602 3.954227 -21.407623 -1.942821 3.8586168
        -22.162329 -2.050045 3.7343736 -22.95367 -2.1702275 3.5779533
        -23.784094 -2.3055272 3.3854504 -24.656147 -2.4585629 3.1525438
        -25.572495 -2.6325285 2.8744178 -26.535896 -2.831345 2.5456686
        -27.54919 -3.0598524 2.1601868 -28.615244 -3.3240564 1.7110038
        -29.736906 -3.6314404 1.190098 -30.916899 -3.9913557 0.588114
        -32.157608 -4.4154835 -0.10602462 -33.46078 -4.918392 -0.90568554
        -34.826782 -5.518114 -1.827296 -36.253338 -6.2366953 -2.8913188
        -37.73332 -7.1005564 -4.1232867 -39.251034 -8.140345 -5.5545216
        -40.776745 -9.389891 -7.2218113 -42.258965 -10.88345 -9.164694
        -43.61521 -12.650404 -11.418536 -44.723026 -14.706314 -14.001163
        -45.415302 -17.039621 -16.891178 -45.486725 -19.594563 -19.998392
        -44.71975 -22.253649 -23.131445 -42.936443 -24.826881 -25.975245
        -40.072903 -27.058506 -28.097776 -36.255108 -28.660778 -29.004984
        -31.83802 -29.374687 -28.245777 -27.369669 -29.040958 -25.538275
        -23.47248 -27.650532 -20.860958 -20.682835 -25.348063 -14.457979
        -13.387484 -15.535069 -4.4592686 0.05281639 0.080877304 0.7891178
        -0.033067703 0.0358696 0.7732992 -0.09284973 -0.017151833 0.73817396
        -0.12755966 -0.07055187 0.69497013 -0.14202881 -0.11936522 0.6517539
        -0.14223862 -0.16112757 0.6131909 -0.13363647 -0.19522429 0.5812391
        -10.4947 -0.8149388 3.0853183 -10.844537 -0.833028 3.1643546
        -11.20401 -0.8517555 3.2434473 -11.573432 -0.87119335 3.3222682
        -11.953168 -0.8914259 3.4004474 -12.343643 -0.912551 3.4775672
        -12.745348 -0.9346816 3.5531569 -13.158846 -0.9579479 3.6266847
        -13.584787 -0.9824992 3.6975482 -14.023912 -1.0085062 3.7650673
        -14.477062 -1.0361638 3.8284698 -14.945178 -1.065694 3.886881
        -15.42932 -1.0973498 3.9393103 -15.930661 -1.1314183 3.9846363
        -16.450497 -1.168228 4.0215926 -16.990242 -1.2081525 4.0487494
        -17.551437 -1.2516199 4.0645027 -18.135746 -1.2991216 4.067054
        -18.74495 -1.3512242 4.0543966 -19.380955 -1.4085853 4.0243015
        -20.045794 -1.471972 3.974299 -20.741617 -1.5422859 3.90166
        -21.470718 -1.6205943 3.8033748 -22.23553 -1.7081693 3.676121
        -23.03865 -1.8065407 3.516224 -23.882862 -1.9175578 3.3196006
        -24.77115 -2.043477 3.0816834 -25.706726 -2.1870677 2.7973242
        -26.693058 -2.351754 2.4606647 -27.733883 -2.541793 2.064972
        -28.833235 -2.7625136 1.6024227 -29.995459 -3.0206137 1.0638071
        -31.22519 -3.3245482 0.43810844 -32.527275 -3.6849992 -0.28809017
        -33.906487 -4.115448 -1.13146 -35.36693 -4.632831 -2.1130977
        -36.910694 -5.2582016 -3.2600322 -38.5354 -6.0173006 -4.6069136
        -40.23001 -6.940769 -6.1975126 -41.96812 -8.063565 -8.085113
        -43.698376 -9.4229 -10.330233 -45.33207 -11.053615 -12.993184
        -46.729843 -12.979791 -16.118301 -47.69201 -15.201315 -19.706549
        -47.96109 -17.675491 -23.675667 -47.24881 -20.296345 -27.812841
        -45.298634 -22.879261 -31.736177 -41.983887 -25.163324 -34.893093
        -37.416374 -26.844292 -36.626835 -32.012035 -27.640638 -36.320393
        -26.454573 -27.375246 -33.580086 -21.538921 -26.035978 -28.374315
        -17.950806 -23.781483 -21.047298 -16.085999 -20.887215 -12.192578
        0.0069408417 0.10876846 0.92134666 -0.09026337 0.049429893 0.8800087
        -0.1520958 -0.014603615 0.8186264 -0.18249321 -0.07538986 0.7522211
        -0.18933201 -0.12840986 0.6904924 -0.1809063 -0.1719966 0.63820875
        -0.16407394 -0.20634699 0.5966335 -10.494569 -0.678714 3.0702178
        -10.844485 -0.69231313 3.1483274 -11.204096 -0.7063938 3.2264476
        -11.573725 -0.72101057 3.3042514 -11.95375 -0.7362277 3.38137
        -12.344607 -0.75211954 3.4573886 -12.746803 -0.76877207 3.5318375
        -13.160922 -0.78628445 3.604187 -13.587627 -0.80477035 3.6738389
        -14.027682 -0.8243598 3.7401135 -14.481948 -0.8452018 3.8022425
        -14.951394 -0.86746573 3.8593533 -15.437106 -0.89134485 3.9104571
        -15.940291 -0.9170596 3.954434 -16.462278 -0.94486135 3.990017
        -17.004526 -0.9750376 4.015776 -17.56862 -1.0079175 4.0301037
        -18.156279 -1.0438806 4.0311937 -18.769358 -1.0833651 4.01703
        -19.409834 -1.1268809 3.985365 -20.079838 -1.1750249 3.9337032
        -20.781643 -1.2285005 3.8592772 -21.517685 -1.2881436 3.7590237
        -22.290585 -1.3549544 3.6295433 -23.10317 -1.4301376 3.467054
        -23.958515 -1.5151596 3.2673244 -24.859974 -1.6118143 3.0255857
        -25.811234 -1.7223158 2.7364075 -26.816376 -1.8494136 2.393547
        -27.879927 -1.9965485 1.9897442 -29.006952 -2.1680512 1.5164372
        -30.203129 -2.3694062 0.9633844 -31.474838 -2.6075847 0.31811357
        -32.829163 -2.891473 -0.43486565 -34.273735 -3.232396 -1.3151877
        -35.81622 -3.6447325 -2.3481913 -37.46299 -4.1465974 -3.5669436
        -39.21659 -4.760481 -5.0146265 -41.071087 -5.5136843 -6.746884
        -43.00453 -6.4381514 -8.833106 -44.967552 -7.5690994 -11.354881
        -46.868073 -8.941466 -14.39851 -48.553642 -10.582884 -18.037434
        -49.796066 -12.501704 -22.299603 -50.288994 -14.669626 -27.11721
        -49.6738 -17.000769 -32.263184 -47.61132 -19.33412 -37.293514
        -43.903595 -21.431751 -41.533154 -38.6384 -23.007105 -44.15158
        -32.286938 -23.788158 -44.348133 -25.670845 -23.599892 -41.60123
        -19.766106 -22.427711 -35.863934 -15.415848 -20.424976 -27.588734
        -13.095322 -17.858204 -17.556946 -5.220791 -6.0141525 -2.0348282
        -0.15772438 0.029071808 0.9941807 -0.21764183 -0.039839745 0.90117836
        -0.24038506 -0.10189152 0.8084941 -0.23716545 -0.15371895 0.72684383
        -0.21859932 -0.19472194 0.66047287 -0.19277668 -0.22591424 0.60946167
        -10.493285 -0.5396631 3.0584342 -10.84323 -0.5486863 3.1358614
        -11.20291 -0.5580314 3.213268 -11.572659 -0.56773525 3.2903283
        -11.95286 -0.57784116 3.366675 -12.343965 -0.5883994 3.441893
        -12.746485 -0.5994682 3.5155165 -13.161017 -0.6111143 3.587017
        -13.588243 -0.6234148 3.6557977 -14.028935 -0.63645786 3.7211816
        -14.483975 -0.6503442 3.782402 -14.954349 -0.6651887 3.838589
        -15.441164 -0.68112254 3.8887548 -15.945648 -0.6982955 3.9317818
        -16.469158 -0.7168785 3.9664023 -17.013184 -0.7370672 3.991187
        -17.579344 -0.7590864 4.004524 -18.169401 -0.7831949 4.0046053
        -18.785254 -0.8096928 3.989405 -19.428947 -0.8389296 3.956664
        -20.102678 -0.8713151 3.903867 -20.808813 -0.9073337 3.82822
        -21.549898 -0.9475614 3.7266178 -22.328688 -0.9926903 3.5956051
        -23.148191 -1.0435543 3.4313211 -24.0117 -1.1011722 3.2294238
        -24.922855 -1.166794 2.9849887 -25.88571 -1.2419654 2.6923773
        -26.904816 -1.328614 2.345056 -27.985323 -1.4291594 1.9353571
        -29.133099 -1.54666 1.4541551 -30.354889 -1.6850042 0.89040816
        -31.658445 -1.849161 0.23050858 -33.052685 -2.0454998 -0.54266596
        -34.54756 -2.2821884 -1.4511021 -36.1537 -2.5696769 -2.5235329
        -37.881134 -2.921248 -3.7979193 -39.736694 -3.3535745 -5.3244505
        -41.71915 -3.887164 -7.168649 -43.811012 -4.546439 -9.413569
        -45.965782 -5.3589745 -12.159054 -48.090294 -6.3531785 -15.514546
        -50.02317 -7.553268 -19.580374 -51.51443 -8.970396 -24.41098
        -52.217728 -10.589026 -29.955818 -51.714073 -12.349732 -35.980762
        -49.59 -14.133574 -41.991837 -45.579693 -15.758253 -47.20684
        -39.742706 -16.998512 -50.636505 -32.593494 -17.635624 -51.307434
        -25.074875 -17.525524 -48.574265 -18.326256 -16.653763 -42.372528
        -13.333546 -15.142633 -33.254826 -10.642607 -13.205653 -22.17747
        -10.273802 -11.076679 -10.161961 -0.22752571 -0.032972813 1.09939
        -0.28168297 -0.09713793 0.9737425 -0.29436302 -0.151999 0.8554058
        -0.2800064 -0.19580436 0.75530434 -0.25112343 -0.22906113 0.6765182
        -0.2166729 -0.25336552 0.61761004 -10.491879 -0.39871672 3.0511165
        -10.841826 -0.4031057 3.1281276 -11.201531 -0.40765488 3.2051
        -11.571334 -0.41238302 3.2817087 -11.951625 -0.41731212 3.3575866
        -12.342858 -0.42246783 3.4323213 -12.745556 -0.42787978 3.505446
        -13.16032 -0.4335821 3.5764349 -13.587839 -0.43961415 3.6446917
        -14.028896 -0.4460208 3.7095413 -14.484383 -0.45285368 3.7702184
        -14.955296 -0.4601715 3.8258538 -15.442753 -0.46804145 3.875462
        -15.947999 -0.47654018 3.9179244 -16.472406 -0.4857554 3.951976
        -17.017479 -0.4957875 3.9761853 -17.584864 -0.50675213 3.9889412
        -18.176346 -0.51878214 3.9884307 -18.793852 -0.53203213 3.972625
        -19.439466 -0.5466819 3.9392567 -20.115429 -0.56294316 3.885799
        -20.824163 -0.58106506 3.8094413 -21.56828 -0.60134524 3.7070546
        -22.350624 -0.6241412 3.5751476 -23.174307 -0.64988273 3.4098122
        -24.042768 -0.67909634 3.206637 -24.959818 -0.7124271 2.9606054
        -25.929745 -0.75067437 2.6659467 -26.957397 -0.79483277 2.315947
        -28.048315 -0.8461536 1.9026875 -29.208883 -0.906218 1.4166878
        -30.446524 -0.97703767 0.8464039 -31.76989 -1.0611864 0.17750996
        -33.18906 -1.1619679 -0.60815275 -34.715538 -1.2836269 -1.534075
        -36.361893 -1.4316106 -2.6311784 -38.14061 -1.6128654 -3.940601
        -40.061455 -1.8361585 -5.517114 -42.12652 -2.112344 -7.4327836
        -44.321594 -2.4544752 -9.779818 -46.602646 -2.8774915 -12.670465
        -48.876564 -3.39713 -16.230206 -50.977074 -4.02738 -20.578419
        -52.640717 -4.775873 -25.789122 -53.49512 -5.6365213 -31.825764
        -53.08059 -6.5798564 -38.452282 -50.931778 -7.5438285 -45.14277
        -46.733635 -8.430912 -51.042038 -40.52265 -9.118898 -55.048786
        -32.840034 -9.485985 -56.06498 -24.71165 -9.449108 -53.35398
        -17.39134 -8.997541 -46.836365 -11.96554 -8.197237 -37.135754
        -9.029659 -7.164982 -25.333347 -8.59499 -6.0289283 -12.579374
        -0.28858376 -0.13542461 1.1754761 -0.33439445 -0.18388987 1.0225506
        -0.33654785 -0.2226584 0.8841257 -0.31190872 -0.2517537 0.7704549
        -0.2742176 -0.27249837 0.6831596 -0.23281384 -0.2866581 0.61928123
        -10.490976 -0.256832 3.048992 -10.840909 -0.25655794 3.1258664
        -11.200609 -0.2562812 3.2026968 -11.570415 -0.25600243 3.279157
        -11.950722 -0.25572205 3.3548813 -12.341983 -0.2554408 3.429457
        -12.744721 -0.2551596 3.5024183 -13.159545 -0.2548792 3.5732388
        -13.587143 -0.25460094 3.641324 -14.028302 -0.2543261 3.7059982
        -14.483913 -0.25405627 3.7664971 -14.954983 -0.2537932 3.8219516
        -15.44263 -0.25353917 3.8713768 -15.948103 -0.25329664 3.9136546
        -16.47278 -0.25306848 3.9475193 -17.018173 -0.2528581 3.9715412
        -17.585932 -0.25266933 3.9841065 -18.17785 -0.25250667 3.9834034
        -18.79587 -0.2523753 3.9674008 -19.442081 -0.25228104 3.9338288
        -20.118744 -0.25223044 3.8801577 -20.82829 -0.252231 3.8035707
        -21.573364 -0.25229105 3.7009315 -22.35683 -0.2524205 3.5687377
        -23.181847 -0.2526276 3.4030657 -24.051884 -0.25292313 3.1994822
        -24.970821 -0.2533172 2.9529405 -25.943024 -0.25381923 2.6576288
        -26.97343 -0.25443664 2.3067746 -28.067724 -0.25517312 1.8923757
        -29.232456 -0.25602555 1.4048399 -30.475277 -0.25698003 0.8324577
        -31.805151 -0.25800696 0.16067006 -33.23255 -0.25905147 -0.629024
        -34.7695 -0.2600231 -1.560611 -36.429253 -0.2607808 -2.665738
        -38.225124 -0.2611154 -3.9866047 -40.167934 -0.26072922 -5.579524
        -42.260933 -0.25921938 -7.518775 -44.491108 -0.25607592 -9.899686
        -46.8154 -0.25070447 -12.838773 -49.14087 -0.24252355 -16.467094
        -51.299793 -0.23108375 -20.91075 -53.02439 -0.216395 -26.250818
        -53.9336 -0.19920193 -32.456097 -53.553917 -0.18128651 -39.290638
        -51.401848 -0.1655832 -46.21829 -47.144527 -0.15625834 -52.359352
        -40.809273 -0.1591984 -56.573822 -32.94594 -0.1767095 -57.719322
        -24.608109 -0.20649563 -55.02591 -17.088736 -0.24447758 -48.40717
        -11.509703 -0.28460282 -38.509853 -8.484789 -0.31996104 -26.458103
        -8.023386 -0.3451365 -13.447092 -0.32976532 -0.26537243 1.2048187
        -0.36663437 -0.28937152 1.0363913 -0.36006737 -0.30545375 0.8879614
        -0.328022 -0.3152178 0.7685485 -0.28460693 -0.32038462 0.6784179
        -0.23906612 -0.32245365 0.6135037 -10.490786 -0.11497591 3.0523086
        -10.840697 -0.11004009 3.129331 -11.200366 -0.10493907 3.2063148
        -11.570129 -0.0996549 3.2829344 -11.95038 -0.09416677 3.3588233
        -12.341568 -0.08845046 3.4335682 -12.74422 -0.08247796 3.5067034
        -13.158934 -0.076217085 3.577702 -13.586398 -0.06963086 3.6459684
        -14.027398 -0.06267695 3.7108274 -14.482821 -0.055307113 3.7715132
        -14.953667 -0.047466237 3.827157 -15.441051 -0.0390914 3.8767729
        -15.946218 -0.030111084 3.919243 -16.470537 -0.020443408 3.9533017
        -17.015518 -0.0099946745 3.9775178 -17.582802 0.0013426542 3.9902804
        -18.174168 0.013692759 3.989777 -18.791553 0.027199691 3.9739788
        -19.437029 0.042031642 3.9406188 -20.112843 0.05838658 3.8871717
        -20.821407 0.07649911 3.8108273 -21.565336 0.09664965 3.708458
        -22.347471 0.11917549 3.5765748 -23.170921 0.14449005 3.411272
        -24.039116 0.17309731 3.2081432 -24.955864 0.20562145 2.9621754
        -25.925447 0.24284205 2.667606 -26.95271 0.28573787 2.3177323
        -28.043177 0.33555114 1.9046471 -29.203224 0.3938656 1.4188888
        -30.440254 0.46271718 0.84894115 -31.762909 0.5447335 0.18051194
        -33.18124 0.6433199 -0.60450816 -34.706726 0.76288956 -1.5295405
        -36.351902 0.9091543 -2.6254115 -38.129192 1.0894537 -3.9331284
        -40.04834 1.3131102 -5.507285 -42.111374 1.5917301 -7.419704
        -44.304035 1.9393117 -9.762254 -46.5823 2.3718836 -12.646766
        -48.853157 2.9062283 -16.198208 -50.95063 3.5570931 -20.535381
        -52.611893 4.331986 -25.73183 -53.465736 5.223294 -31.750969
        -53.05409 6.1981196 -38.35753 -50.9134 7.188872 -45.028057
        -46.72944 8.090223 -50.91162 -40.538094 8.770377 -54.9125
        -32.87844 9.103588 -55.93701 -24.770536 9.010852 -53.249763
        -17.461906 8.489248 -46.767532 -12.036045 7.615764 -37.106026
        -9.090008 6.51956 -25.338043 -8.639681 5.3384366 -12.608356
        -0.34386826 -0.4007988 1.1793537 -0.37312508 -0.39696407 1.0109415
        -0.3613224 -0.38834262 0.86489964 -0.3260517 -0.37771952 0.7488427
        -0.28092766 -0.366863 0.6622119 -0.23466969 -0.3567438 0.60048264
        -10.491099 0.025884952 3.0608187 -10.840976 0.035450775 3.1382685
        -11.200583 0.04534325 3.2156975 -11.570254 0.055598363 3.29278
        -11.950375 0.06625818 3.3691478 -12.34139 0.07737152 3.4443874
        -12.743817 0.08899485 3.5180311 -13.15825 0.10119317 3.5895517
        -13.585368 0.114041 3.6583514 -14.025946 0.12762378 3.723754
        -14.48086 0.14203897 3.7849922 -14.9511 0.15739775 3.8411958
        -15.43777 0.17382692 3.891378 -15.942097 0.19147098 3.9344196
        -16.465437 0.21049497 3.9690547 -17.009275 0.23108763 3.993853
        -17.575233 0.25346562 4.007204 -18.165068 0.27787876 4.0072994
        -18.780674 0.3046164 3.992114 -19.424099 0.33401605 3.9593902
        -20.097532 0.36647376 3.9066136 -20.803335 0.4024581 3.8309922
        -21.54405 0.44252795 3.7294252 -22.32243 0.48735404 3.5984588
        -23.14147 0.5377532 3.434239 -24.004456 0.5947199 3.2324312
        -24.915022 0.6594809 2.9881215 -25.877205 0.73356014 2.6956844
        -26.895548 0.81886506 2.348606 -27.975174 0.91780066 1.9392445
        -29.121937 1.0334208 1.4585106 -30.342546 1.1696267 0.8954115
        -31.644737 1.3314264 0.23640582 -33.03736 1.525265 -0.535533
        -34.53035 1.7594485 -1.4422674 -36.134247 2.04464 -2.5123491
        -37.85901 2.3944426 -3.7835035 -39.711407 2.825983 -5.3055873
        -41.69013 3.3603718 -7.1436777 -43.777626 4.0227766 -9.380251
        -45.927444 4.8415966 -12.114391 -48.04666 5.845975 -15.454693
        -49.97451 7.0605526 -19.500546 -51.46221 8.496105 -24.30572
        -52.165466 10.135547 -29.81976 -51.668156 11.916415 -35.810295
        -49.559822 13.71524 -41.787766 -45.57628 15.343969 -46.977444
        -39.77588 16.571754 -50.3993 -32.667706 17.178093 -51.0873
        -25.18467 17.022318 -48.397682 -18.455873 16.096315 -42.25892
        -13.462391 14.530556 -33.210007 -10.752998 12.547258 -22.192822
        -10.356047 10.386914 -10.219635 -0.33024216 -0.51786757 1.1042118
        -0.35416794 -0.48930168 0.95065594 -0.34109116 -0.45912313 0.81849194
        -0.30695915 -0.43089056 0.7140541 -0.26409245 -0.406286 0.6365135
        -0.22042179 -0.38575435 0.58162725 -10.491299 0.16479376 3.0737944
        -10.841113 0.17892861 3.151938 -11.200615 0.19354925 3.2300918
        -11.570129 0.20870943 3.3079286 -11.950031 0.22447199 3.3850799
        -12.340759 0.24090981 3.4611301 -12.742816 0.2581072 3.53561
        -13.156785 0.2761611 3.60799 -13.583332 0.29518294 3.6776707
        -14.023214 0.3152998 3.7439733 -14.477295 0.33665735 3.806129
        -14.946543 0.3594211 3.8632655 -15.43204 0.38377976 3.9143932
        -15.934993 0.4099484 3.958393 -16.456726 0.4381724 3.993998
        -16.9987 0.46873182 4.0197783 -17.562494 0.50194794 4.0341263
        -18.149826 0.53819036 4.035238 -18.762539 0.5778866 4.0210967
        -19.402618 0.6215339 3.9894576 -20.072184 0.66971475 3.9378257
        -20.773502 0.7231164 3.8634386 -21.509007 0.78255606 3.7632356
        -22.281301 0.84901184 3.633822 -23.093212 0.9236691 3.4714265
        -23.947798 1.007968 3.2718265 -24.848398 1.1036763 3.0302668
        -25.79869 1.2129819 2.741338 -26.802725 1.3386084 2.398825
        -27.865015 1.483974 1.9955025 -28.990587 1.6533937 1.5228589