<?xml version="1.0"?>
<VTKFile type="StructuredGrid" version="0.1" byte_order="LittleEndian" header_type="UInt32" compressor="vtkZLibDataCompressor">
  <StructuredGrid WholeExtent="0 60 0 20 0 20">
  <Piece Extent="0 60 0 20 0 20">
    <PointData Vectors="B_total">
      <DataArray type="Float32" Name="B_total" NumberOfComponents="3" format="ascii" RangeMin="0" RangeMax="62458.386518157706">
        -9.770606 -1.3632004 3.2232738 -10.102172 -1.4006209 3.309613
        -10.442957 -1.43961 3.3966005 -10.793209 -1.4803487 3.4839592
        -11.153214 -1.5230458 3.5713756 -11.523309 -1.5679405 3.6584964
        -11.903876 -1.6153063 3.7449234 -12.295366 -1.6654552 3.8302052
        -12.698295 -1.7187409 3.9138339 -13.113251 -1.7755646 3.995233
        -13.540907 -1.8363788 4.073749 -13.982021 -1.9016936 4.1486425
        -14.437441 -1.972082 4.219074 -14.908107 -2.048187 4.284092
        -15.39505 -2.1307287 4.3426213 -15.899386 -2.2205124 4.3934507
        -16.422314 -2.318438 4.435218 -16.965097 -2.4255116 4.466402
        -17.529055 -2.542857 4.4853168 -18.115536 -2.6717322 4.490101
        -18.725895 -2.8135464 4.478723 -19.361479 -2.969884 4.4489827
        -20.023582 -3.1425304 4.3985214 -20.713413 -3.3335044 4.3248286
        -21.432062 -3.5450993 4.225262 -22.18045 -3.7799249 4.097052
        -22.959269 -4.040973 3.9373403 -23.768892 -4.331668 3.7431703
        -24.609282 -4.6559463 3.511532 -25.479824 -5.0183306 3.2394056
        -26.379139 -5.424017 2.9238443 -27.30486 -5.878962 2.5621128
        -28.253336 -6.389962 2.1518915 -29.219378 -6.964734 1.6915712
        -30.195942 -7.611931 1.1806071 -31.173868 -8.341105 0.6199441
        -32.14164 -9.162515 0.012447149 -33.08513 -10.086663 -0.6366876
        -33.987347 -11.123498 -1.3195546 -34.828156 -12.280994 -2.0251634
        -35.583973 -13.563037 -2.7389174 -36.22773 -14.966483 -3.441769
        -36.729435 -16.47743 -4.108753 -37.058228 -18.067167 -4.7068996
        -37.186615 -19.688585 -5.192816 -37.0976 -21.274378 -5.510858
        -36.794205 -22.738531 -5.593279 -36.309814 -23.982391 -5.3636837
        -35.71608 -24.905428 -4.7442856 -32.418343 -23.49052 -3.3562098
        -0.085289836 -0.4889164 0.3222599 -0.056201458 -0.50415516 0.3106265
        -0.023774147 -0.51136684 0.30663395 0.008618355 -0.51019955 0.3103857
        0.03792 -0.50145435 0.3209417 0.061941624 -0.4867592 0.33663607
        0.07957888 -0.46814632 0.35548234 0.090750694 -0.4476242 0.37559873
        0.09610891 -0.4268713 0.3954392 0.096737385 -0.4071312 0.41391927
        0.09384298 -0.38917542 0.430403 -9.811755 -1.2697809 3.2167077
        -10.145021 -1.3041677 3.3014271 -10.48769 -1.3400114 3.3866522
        -10.840037 -1.3774796 3.472102 -11.202381 -1.4167659 3.5574594
        -11.57509 -1.4580927 3.642367 -11.958588 -1.5017139 3.7264223
        -12.353365 -1.5479193 3.8091705 -12.759983 -1.597038 3.8900976
        -13.179085 -1.6494435 3.9686203 -13.6114 -1.7055582 4.0440784
        -14.057745 -1.7658582 4.115721 -14.51904 -1.8308806 4.1826973
        -14.9963 -1.9012284 4.244039 -15.490638 -1.9775798 4.2986517
        -16.003265 -2.0606956 4.3452973 -16.53548 -2.1514294 4.3825817
        -17.088661 -2.25074 4.4089456 -17.664257 -2.3597045 4.422651
        -18.263758 -2.479536 4.4217763 -18.888693 -2.6116033 4.404214
        -19.540592 -2.7574568 4.3676677 -20.22097 -2.9188585 4.309658
        -20.931295 -3.0978215 4.2275248 -21.67296 -3.2966547 4.118434
        -22.447235 -3.5180178 3.979375 -23.25523 -3.7649956 3.8071842
        -24.097803 -4.041166 3.5985184 -24.975477 -4.3507032 3.3498793
        -25.88829 -4.698482 3.0576372 -26.835617 -5.090204 2.718081
        -27.815939 -5.5325346 2.3275182 -28.826582 -6.0332665 1.8824356
        -29.86341 -6.6014595 1.3797152 -30.9205 -7.247585 0.81691086
        -31.989758 -7.9835806 0.19254917 -33.06051 -8.8227825 -0.49355862
        -34.118904 -9.779558 -1.2400193 -35.14716 -10.8685 -2.0435255
        -36.122517 -12.102905 -2.8983555 -37.016045 -13.492327 -3.7954555
        -37.791504 -15.038889 -4.720705 -38.405132 -16.732445 -5.652031
        -38.807404 -18.544838 -6.5552692 -38.948288 -20.424288 -7.379322
        -38.787113 -22.291695 -8.052149 -38.30679 -24.04108 -8.479818
        -37.53013 -25.546547 -8.551224 -36.53335 -26.676712 -8.149666
        -35.450603 -27.314863 -7.170109 -34.464844 -27.379904 -5.537342
        -0.06900048 -0.51737404 0.2395935 -0.027207375 -0.5265846 0.23479557
        0.014248371 -0.5254898 0.24139404 0.051119328 -0.51517105 0.25776958
        0.080485344 -0.49781132 0.28122044 0.10110378 -0.47607136 0.30866098
        0.1131506 -0.45247555 0.33727896 0.11778641 -0.4290557 0.36490595
        0.11664677 -0.40721178 0.390113 0.11143494 -0.38774538 0.4121549
        -9.84508 -1.1712437 3.2086122 -10.179782 -1.2023603 3.2918477
        -10.524055 -1.2348077 3.3754656 -10.878198 -1.26874 3.4591823
        -11.242558 -1.3043342 3.5426776 -11.617535 -1.3417932 3.6255918
        -12.00359 -1.3813497 3.7075195 -12.40125 -1.4232692 3.7880023
        -12.811122 -1.4678531 3.8665223 -13.233894 -1.5154446 3.942492
        -13.670351 -1.5664318 4.015244 -14.121368 -1.6212528 4.0840206
        -14.587931 -1.6804029 4.1479583 -15.071123 -1.7444398 4.2060776
        -15.572141 -1.8139927 4.2572646 -16.092281 -1.8897685 4.300259
        -16.632946 -1.9725648 4.3336396 -17.195623 -2.0632803 4.3558083
        -17.781889 -2.1629305 4.3649826 -18.393383 -2.2726643 4.359184
        -19.031797 -2.3937879 4.3362308 -19.698862 -2.5277896 4.293736
        -20.39632 -2.6763763 4.2291026 -21.125912 -2.841512 4.1395216
        -21.889353 -3.0254707 4.0219655 -22.688297 -3.230904 3.8731925
        -23.52431 -3.4609094 3.6897142 -24.398798 -3.7191324 3.4677916
        -25.312931 -4.0098743 3.2034163 -26.26752 -4.3382344 2.892307
        -27.262854 -4.710269 2.5299222 -28.298496 -5.1331873 2.111507
        -29.373045 -5.6155767 1.6321825 -30.483826 -6.167646 1.0870644
        -31.626543 -6.8014803 0.4714058 -32.794838 -7.531248 -0.21926954
        -33.979656 -8.373283 -0.9890499 -35.168327 -9.345882 -1.8415512
        -36.343185 -10.468637 -2.7797027 -37.479668 -11.760912 -3.8052378
        -38.54383 -13.23919 -4.9173503 -39.48979 -14.912794 -6.1100283
        -40.258026 -16.777834 -7.367347 -40.776318 -18.80955 -8.656566
        -40.965572 -20.95406 -9.919723 -40.75273 -23.121725 -11.06586
        -40.091103 -25.18546 -11.967587 -38.985466 -26.987907 -12.466523
        -37.514606 -28.359695 -12.390534 -35.841274 -29.147594 -11.581764
        -34.200665 -29.245472 -9.928264 -32.865864 -28.617525 -7.387464
        -0.032104492 -0.5278301 0.14604568 0.020284653 -0.5278206 0.15649605
        0.06609726 -0.5169401 0.18073511 0.10156345 -0.49799252 0.21450043
        0.12530804 -0.47424984 0.25316763 0.1379404 -0.44877052 0.292655
        0.14133453 -0.42388868 0.32999754 0.13784885 -0.40111446 0.3633958
        0.12978315 -0.38121986 0.39205337 -9.871465 -1.0681503 3.1990964
        -10.207363 -1.0957888 3.280982 -10.552981 -1.1246209 3.3631456
        -10.908643 -1.1547843 3.445301 -11.274719 -1.1864382 3.5271263
        -11.651641 -1.2197651 3.6082606 -12.039897 -1.254974 3.688296
        -12.440055 -1.2923037 3.7667725 -12.852757 -1.3320259 3.843169
        -13.278739 -1.3744493 3.9168947 -13.718831 -1.4199243 3.9872773
        -14.173964 -1.4688472 4.053552 -14.645182 -1.5216663 4.1148486
        -15.133639 -1.5788876 4.1701736 -15.640604 -1.641083 4.2183995
        -16.16746 -1.7088983 4.258246 -16.7157 -1.7830632 4.288266
        -17.286924 -1.8644038 4.30683 -17.88283 -1.9538573 4.312114
        -18.5052 -2.05249 4.302084 -19.155893 -2.16152 4.274493
        -19.836832 -2.2823458 4.2268667 -20.549995 -2.4165792 4.1564965
        -21.297403 -2.5660923 4.06043 -22.081097 -2.7330675 3.935455
        -22.903137 -2.9200726 3.7780898 -23.765572 -3.1301367 3.5845354
        -24.670397 -3.36686 3.3506505 -25.619492 -3.63454 3.0719078
        -26.614532 -3.938333 2.7433505 -27.656858 -4.2844496 2.359562
        -28.747314 -4.680396 1.9146461 -29.88603 -5.1352615 1.4022218
        -31.072174 -5.660062 0.8154168 -32.3036 -6.2681055 0.14682919
        -33.576355 -6.9753695 -0.6115626 -34.88387 -7.800761 -1.4685862
        -36.21572 -8.76618 -2.4340782 -37.55561 -9.896042 -3.5189872
        -38.878403 -11.215967 -4.7349377 -40.146183 -12.750113 -6.092671
        -41.303696 -14.516521 -7.598357 -42.27445 -16.520012 -9.246841
        -42.95987 -18.742554 -11.011176 -43.244892 -21.13189 -12.829107
        -43.013737 -23.59105 -14.589346 -42.17774 -25.97312 -16.123215
        -40.712605 -28.08739 -17.209389 -38.694942 -29.721262 -17.598022
        -36.321983 -30.67765 -17.054424 -33.898693 -30.818806 -15.411521
        -31.787746 -30.10087 -12.611296 -27.870039 -26.298307 -8.002765
        0.025184631 -0.5083561 0.058116913 0.0812273 -0.49917603 0.09209728
        0.12345314 -0.48103523 0.13862991 0.15041637 -0.45775223 0.19099808
        0.16338634 -0.4327736 0.24352121 0.1651125 -0.40864277 0.29226232
        0.15885735 -0.38691568 0.33505285 0.14760399 -0.36829615 0.37111306
        -9.891872 -0.96105736 3.1886334 -10.22875 -0.98503685 3.2693098
        -10.575481 -1.0100611 3.3501763 -10.932407 -1.0362515 3.4309459
        -11.299924 -1.0637472 3.5112958 -11.678483 -1.0927087 3.590864
        -12.068607 -1.1233194 3.669241 -12.470893 -1.1557895 3.745966
        -12.886018 -1.1903577 3.8205159 -13.314759 -1.227296 3.8922973
        -13.757987 -1.266913 3.9606347 -14.216684 -1.3095589 4.024758
        -14.691949 -1.3556294 4.0837893 -15.184997 -1.4055736 4.136727
        -15.697164 -1.4598987 4.1824293 -16.229912 -1.5191798 4.2196
        -16.78482 -1.5840683 4.2467704 -17.363594 -1.6553042 4.2622805
        -17.96804 -1.7337307 4.26427 -18.600082 -1.8203107 4.250657
        -19.261736 -1.9161507 4.2191334 -19.955116 -2.0225263 4.167143
        -20.682425 -2.1409178 4.0918746 -21.445953 -2.273055 3.9902427
        -22.248074 -2.420968 3.8588562 -23.091253 -2.5870647 3.6940074
        -23.97803 -2.7742076 3.4915957 -24.911 -2.985829 3.247089
        -25.892794 -3.2260678 2.9554448 -26.925999 -3.4999402 2.6110342
        -28.013103 -3.8135629 2.2075496 -29.156357 -4.1744227 1.7379136
        -30.357643 -4.5917215 1.1941633 -31.618267 -5.076788 0.5672846
        -32.938675 -5.6435556 -0.1530374 -34.317917 -6.309086 -0.9788119
        -35.75278 -7.0940475 -1.9243006 -37.236195 -8.023019 -3.0066693
        -38.754642 -9.124368 -4.2465506 -40.28408 -10.429253 -5.667956
        -41.78427 -11.9692 -7.296686 -43.191803 -13.771423 -9.155825
        -44.413177 -15.851074 -11.256778 -45.320915 -18.199863 -13.584526
        -45.757637 -20.771646 -16.077333 -45.55394 -23.467361 -18.604183
        -44.564728 -26.125174 -20.948019 -42.722206 -28.523836 -22.807014
        -40.09264 -30.407158 -23.826252 -36.912098 -31.53106 -23.662949
        -33.574375 -31.722364 -22.070152 -30.56064 -30.926907 -18.966032
        -28.330593 -29.224775 -14.454882 -6.4261255 -6.696596 -2.1160202
        0.09330845 -0.45347214 -0.0015392303 0.14285088 -0.4403124 0.059194565
        0.17324543 -0.4216051 0.12675285 0.186512 -0.4009428 0.19352913
        0.18651772 -0.38092995 0.25453472 0.17746258 -0.36307955 0.30721474
        0.16307163 -0.34803343 0.35090983 -9.907253 -0.85053825 3.1779418
        -10.244923 -0.87070245 3.2575607 -10.592555 -0.8917529 3.337298
        -10.950514 -0.91379267 3.4168663 -11.319212 -0.9369405 3.4959426
        -11.699125 -0.9613328 3.574163 -12.0908 -0.98712593 3.6511188
        -12.494859 -1.0144986 3.726348 -12.912014 -1.0436549 3.7993267
        -13.343073 -1.0748266 3.8694592 -13.788946 -1.1082776 3.9360676
        -14.25066 -1.144307 3.9983778 -14.729359 -1.1832542 4.0555067
        -15.226314 -1.2255042 4.106444 -15.74292 -1.2714933 4.1500382
        -16.28071 -1.3217168 4.1849785 -16.841345 -1.3767374 4.2097764
        -17.426615 -1.4371966 4.2227483 -18.038439 -1.503827 4.222
        -18.678858 -1.5774691 4.20541 -19.350042 -1.6590921 4.170611
        -20.054276 -1.7498188 4.1149783 -20.793974 -1.850959 4.0356064
        -21.571684 -1.9640505 3.9292867 -22.390093 -2.0909097 3.7924676
        -23.252054 -2.233704 3.6212296 -24.160578 -2.3950279 3.4111927
        -25.118855 -2.5780149 3.157457 -26.130253 -2.786475 2.8544934
        -27.198288 -3.0250683 2.4960241 -28.326603 -3.2995317 2.0748758
        -29.518923 -3.6169686 1.5828067 -30.778976 -3.986211 1.0102615
        -32.110397 -4.4182835 0.34604156 -33.5165 -4.9269505 -0.42320016
        -34.999798 -5.5293493 -1.3136984 -36.5611 -6.246644 -2.3455834
        -38.197685 -7.104582 -3.5441244 -39.900166 -8.133715 -4.94092
        -41.64736 -9.368835 -6.574441 -43.39884 -10.847042 -8.488719
        -45.08513 -12.603395 -10.728376 -46.59704 -14.663111 -13.327551
        -47.777508 -17.029251 -16.290455 -48.422493 -19.66583 -19.562729
        -48.2995 -22.478647 -22.99701 -47.192516 -25.30011 -26.323275
        -44.974026 -27.888338 -29.142622 -41.68875 -29.952253 -30.965948
        -37.613163 -31.206585 -31.30684 -33.247772 -31.445168 -29.80885
        -29.221645 -30.603561 -26.35597 -26.136473 -28.779713 -21.108534
        -24.417488 -26.20061 -14.442469 0.09735489 -0.37302017 -0.087781906
        0.15467072 -0.3707466 -0.013890266 0.1890068 -0.36233234 0.06810379
        0.20314503 -0.3511114 0.14844179 0.20201206 -0.3395295 0.22098017
        0.19081497 -0.32903194 0.2828672 0.17398357 -0.3202753 0.3335178
        -9.918492 -0.7371831 3.1678507 -10.256779 -0.75340044 3.2465782
        -10.605121 -0.77033675 3.325368 -10.963898 -0.78807586 3.403931
        -11.333538 -0.8067146 3.4819446 -11.714537 -0.826364 3.5590453
        -12.107459 -0.8471516 3.6348236 -12.512953 -0.86922306 3.7088172
        -12.931753 -0.89274484 3.7805014 -13.364697 -0.9179064 3.8492794
        -13.812731 -0.94492316 3.9144711 -14.276914 -0.97404015 3.9753003
        -14.75843 -1.0055352 4.030878 -15.258598 -1.0397243 4.080189
        -15.778867 -1.0769659 4.122073 -16.320826 -1.1176678 4.1552067
        -16.886204 -1.1622943 4.1780853 -17.476871 -1.2113758 4.189006
        -18.094837 -1.2655201 4.1860456 -18.742254 -1.3254266 4.1670465
        -19.421417 -1.3919041 4.1295958 -20.134768 -1.4658933 4.071005
        -20.884909 -1.5484962 3.9882889 -21.674616 -1.6410123 3.878131
        -22.50686 -1.7449833 3.7368388 -23.38484 -1.8622582 3.5603056
        -24.312008 -1.9950632 3.343905 -25.292097 -2.146103 3.0824063
        -26.329159 -2.3186865 2.76984 -27.427586 -2.5168922 2.399339
        -28.592133 -2.7457807 1.9629335 -29.827944 -3.0116723 1.4512895
        -31.140566 -3.322506 0.85335195 -32.53596 -3.6882968 0.15582281
        -34.02037 -4.1217046 -0.65759873 -35.599953 -4.638701 -1.6073223
        -37.279865 -5.2593307 -2.719391 -39.06235 -6.008428 -4.0273714
        -40.94315 -6.9161177 -5.574359 -42.905464 -8.0177 -7.414367
        -44.910767 -9.352303 -9.611667 -46.8861 -10.959253 -12.235752
        -48.709255 -12.870919 -15.348568 -50.195293 -15.100595 -18.980383
        -51.092567 -17.624699 -23.091873 -51.100174 -20.361115 -27.525286
        -49.920395 -23.14959 -31.957537 -47.351707 -25.746231 -35.881664
        -43.40506 -27.846294 -38.65028 -38.39507 -29.143015 -39.600986
        -32.941273 -29.410604 -38.239605 -27.843834 -28.577847 -34.405247
        -23.869602 -26.753408 -28.32711 -21.546934 -24.187445 -20.536682
        -7.7900696 -8.052707 -4.4440727 0.1525116 -0.2718506 -0.06664848
        0.19183159 -0.28013706 0.02543068 0.20824814 -0.2839489 0.11570549
        0.20755196 -0.2853732 0.19682932 0.19578457 -0.2857976 0.26553297
        0.1779499 -0.28598833 0.3213098 -9.926343 -0.62158775 3.1591783
        -10.26509 -0.6337521 3.2371957 -10.613968 -0.64646065 3.3152323
        -10.973364 -0.65977716 3.392999 -11.343721 -0.6737753 3.470173
        -11.725549 -0.6885396 3.5463905 -12.119428 -0.70416737 3.6212428
        -12.526024 -0.7207695 3.6942666 -12.946095 -0.7384729 3.7649372
        -13.380499 -0.7574222 3.8326569 -13.830208 -0.7777819 3.8967445
        -14.296309 -0.7997392 3.9564207 -14.780023 -0.8235068 4.010794
        -15.2827 -0.84932667 4.058844 -15.805832 -0.8774738 4.099403
        -16.351059 -0.9082614 4.131139 -16.920162 -0.942047 4.1525345
        -17.515078 -0.9792396 4.1618695 -18.13789 -1.0203089 4.1571994
        -18.790838 -1.0657965 4.1363373 -19.476324 -1.1163309 4.0968313
        -20.196918 -1.1726449 4.0359435 -20.955378 -1.2355993 3.9506214
        -21.75467 -1.3062122 3.837457 -22.598003 -1.3856986 3.6926537
        -23.488869 -1.4755168 3.5119367 -24.431091 -1.5774322 3.2904782
        -25.428867 -1.6935995 3.0227714 -26.486847 -1.8266671 2.702476
        -27.610172 -1.9799168 2.3222225 -28.80458 -2.157445 1.8733581
        -30.076471 -2.3644023 1.345608 -31.433039 -2.6073046 0.726599
        -32.882347 -2.8944404 0.0011821091 -34.433365 -3.2363787 -0.8495881
        -36.095673 -3.6465998 -1.8499072 -37.878654 -4.142213 -3.0312448
        -39.789528 -4.7447147 -4.434917 -41.829456 -5.4806204 -6.1149397
        -43.986835 -6.381667 -8.1404 -46.22652 -7.484021 -10.595699
        -48.474575 -8.825598 -13.575863 -50.599144 -10.44021 -17.172682
        -52.391533 -12.34698 -21.446365 -53.55619 -14.533941 -26.378532
        -53.725334 -16.936794 -31.808025 -52.517242 -19.418036 -37.364227
        -49.64946 -21.757856 -42.431927 -45.09024 -23.672483 -46.196636
        -39.186172 -24.86952 -47.803566 -32.67669 -25.130234 -46.60426
        -26.540344 -24.384798 -42.385983 -21.716816 -22.739265 -35.453945
        -18.83972 -20.436598 -26.511204 -18.109772 -17.773804 -16.405548
        0.13010597 -0.15077877 -0.08345413 0.17605019 -0.18096638 0.010011673
        0.19710541 -0.20431948 0.10313416 0.19944191 -0.22236156 0.18730974
        0.1895895 -0.23642921 0.2586522 0.17298698 -0.2475493 0.31652117
        -9.931412 -0.5043409 3.1526363 -10.270477 -0.5123721 3.230138
        -10.619725 -0.5207668 3.3076284 -10.979552 -0.529568 3.384819
        -11.35041 -0.5388255 3.4613862 -11.73282 -0.5485963 3.5369673
        -12.127372 -0.558946 3.6111522 -12.534748 -0.5699497 3.683479
        -12.955718 -0.58169305 3.7534215 -13.391157 -0.59427404 3.8203824
        -13.842056 -0.6078038 3.883679 -14.309525 -0.6224094 3.9425304
        -14.794806 -0.63823503 3.9960427 -15.299277 -0.6554449 4.043192
        -15.824461 -0.674226 4.082805 -16.372032 -0.69479144 4.113544
        -16.943811 -0.7173848 4.1338816 -17.541782 -0.7422854 4.1420856
        -18.168087 -0.76981413 4.136194 -18.82503 -0.8003421 4.114
        -19.515087 -0.83430034 4.073022 -20.24093 -0.87219274 4.0104847
        -21.005432 -0.9146126 3.9232867 -21.811699 -0.9622624 3.8079534
        -22.663122 -1.0159831 3.6606014 -23.563417 -1.076786 3.4768405
        -24.516682 -1.1458993 3.2516854 -25.527483 -1.2248242 2.979421
        -26.60091 -1.315414 2.6534257 -27.742706 -1.41997 2.265947
        -28.959358 -1.5413759 1.8078052 -30.258266 -1.6832713 1.2679963
        -31.647915 -1.8502822 0.6331226 -33.138065 -2.048319 -0.11342406
        -34.739887 -2.2849627 -0.99268353 -36.46578 -2.5699415 -2.0318792
        -38.328644 -2.9156952 -3.266869 -40.339962 -3.3379889 -4.745302
        -42.505726 -3.8564796 -6.530239 -44.8192 -4.495007 -8.703446
        -47.24905 -5.2812266 -11.36659 -49.72193 -6.2448864 -14.637098
        -52.099854 -7.4137716 -18.633743 -54.15625 -8.805943 -23.445091
        -55.560207 -10.417231 -29.07485 -55.887524 -12.204351 -35.363895
        -54.68248 -14.0672 -41.904606 -51.588104 -15.839536 -47.98845
        -46.52938 -17.301336 -52.650204 -39.87616 -18.222208 -54.85662
        -32.47214 -18.427782 -53.81344 -25.455467 -17.861565 -49.257954
        -19.921005 -16.608707 -41.566544 -16.59469 -14.86381 -31.603102
        -15.68511 -12.862131 -20.399475 0.08390236 -0.023792267 -0.051885605
        0.13828659 -0.0772748 0.030683517 0.166893 -0.12156916 0.11671066
        0.17548752 -0.15739155 0.19635582 0.17063904 -0.18596244 0.26477337
        0.15797329 -0.2085967 0.3207245 -9.934137 -0.38601503 3.148768
        -10.273386 -0.38985962 3.2259586 -10.622849 -0.39388293 3.3031197
        -10.982924 -0.3981069 3.3799627 -11.354074 -0.40255648 3.4561648
        -11.736823 -0.40726072 3.5313625 -12.131772 -0.41225272 3.6051462
        -12.539607 -0.41757062 3.6770532 -12.961108 -0.42325795 3.7465582
        -13.397161 -0.42936438 3.8130624 -13.848766 -0.43594673 3.8758836
        -14.317048 -0.44306964 3.934239 -14.803261 -0.4508066 3.9872332
        -15.308801 -0.45924154 4.03384 -15.83521 -0.4684702 4.072884
        -16.38418 -0.4786016 4.1030216 -16.957561 -0.48976076 4.1227207
        -17.557365 -0.5020911 4.1302404 -18.185766 -0.5157576 4.12361
        -18.845108 -0.5309514 4.100607 -19.537918 -0.5478946 4.058734
        -20.266922 -0.566847 3.9951916 -21.035069 -0.5881151 3.9068465
        -21.84555 -0.6120622 3.7901847 -22.701874 -0.6391227 3.6412678
        -23.607883 -0.6698192 3.4556305 -24.567862 -0.70478696 3.228194
        -25.586586 -0.7448021 2.95311 -26.669445 -0.7908217 2.6235802
        -27.822538 -0.84403414 2.2316122 -29.052835 -0.90592766 1.7676938
        -30.368366 -0.97837895 1.2203602 -31.778442 -1.0637714 0.5755643
        -33.293903 -1.1651481 -0.18423307 -34.927334 -1.28641 -1.0814098
        -36.69297 -1.4325618 -2.1451373 -38.606033 -1.6100041 -3.4141088
        -40.680824 -1.8268524 -4.9400935 -42.926605 -2.0932364 -6.792082
        -45.340057 -2.4214725 -9.060227 -47.892708 -2.8259034 -11.857729
        -50.512177 -3.3220572 -15.317218 -53.05721 -3.9246435 -19.576077
        -55.290268 -4.643575 -24.74294 -56.857857 -5.477544 -30.838076
        -57.298424 -6.4050217 -37.70584 -56.106018 -7.3745456 -44.915436
        -52.871586 -8.299128 -51.6957 -47.488205 -9.0623255 -56.977013
        -40.339542 -9.542034 -59.600327 -32.339897 -9.645802 -58.667408
        -24.737526 -9.342542 -53.87955 -18.734394 -8.678421 -45.66413
        -15.118933 -7.7588425 -34.999535 -14.103096 -6.7099423 -23.047192
        0.015678406 0.08626604 0.031368256 0.07962036 0.013882637 0.08992195
        0.11827087 -0.04810357 0.15816307 0.1361618 -0.09932804 0.22506046
        0.1393032 -0.1406616 0.28453922 0.13322067 -0.17352295 0.3342929
        -9.934782 -0.2671659 3.1479104 -10.274083 -0.2667975 3.2250004
        -10.623608 -0.2664212 3.3020554 -10.983759 -0.2660372 3.3787856
        -11.354996 -0.26564574 3.4548693 -11.737848 -0.26524714 3.5299416
        -12.132917 -0.26484185 3.6035936 -12.540893 -0.26443052 3.6753628
        -12.962557 -0.26401395 3.7447233 -13.398802 -0.26359308 3.8110764
        -13.850627 -0.26316917 3.8737383 -14.319164 -0.2627436 3.9319274
        -14.805672 -0.26231834 3.9847472 -15.311549 -0.26189548 4.03117
        -15.838347 -0.2614777 4.0700192 -16.387764 -0.2610682 4.0999503
        -16.961658 -0.26067075 4.1194277 -17.562046 -0.2602899 4.1267085
        -18.191118 -0.25993103 4.1198177 -18.851229 -0.2596002 4.096528
        -19.544926 -0.2593048 4.0543346 -20.274948 -0.25905308 3.990431
        -21.04427 -0.2588548 3.9016716 -21.856113 -0.25872087 3.784528
        -22.714018 -0.25866255 3.6350415 -23.621876 -0.25869298 3.4487233
        -24.584026 -0.25882524 3.220458 -25.605318 -0.25907165 2.9443526
        -26.691227 -0.2594424 2.6135485 -27.847977 -0.2599427 2.2199688
        -29.082695 -0.26056895 1.7539909 -30.403603 -0.26130223 1.2039914
        -31.820282 -0.2620974 0.55570686 -33.34392 -0.26286975 -0.2087138
        -34.987556 -0.26347283 -1.1120901 -36.766003 -0.26366484 -2.1842384
        -38.69523 -0.26306775 -3.4647803 -40.7904 -0.2611026 -5.0068283
        -43.06183 -0.25691345 -6.881291 -45.50724 -0.24927902 -9.181036
        -48.099037 -0.23653196 -12.022968 -50.76504 -0.21652731 -15.54455
        -53.362885 -0.18677893 -19.889072 -55.65146 -0.14479986 -25.171501
        -57.269997 -0.088855 -31.417208 -57.745064 -0.019037575 -38.4714
        -56.554832 0.061546832 -45.8956 -53.27388 0.14602637 -52.898262
        -47.785183 0.22382966 -58.376087 -40.47682 0.2814691 -61.129745
        -32.286564 0.30681902 -60.22765 -24.498371 0.29793102 -55.36011
        -18.347956 0.25848073 -46.97163 -14.643114 0.19721478 -36.078255
        -13.596405 0.12560749 -23.883339 -0.066207886 0.15673876 0.15668869
        0.006521225 0.075600505 0.18148994 0.056131363 0.0038202703 0.22344685
        0.085048676 -0.056872398 0.27083492 0.09819603 -0.10662185 0.31628466
        0.10062408 -0.14657322 0.3561709 -9.933436 -0.14833859 3.1501772
        -10.272661 -0.14375834 3.2273803 -10.622098 -0.13898353 3.3045537
        -10.982147 -0.13399282 3.3814082 -11.35327 -0.1287615 3.4576209
        -11.735987 -0.12326148 3.532828 -12.130902 -0.11746042 3.6066198
        -12.538702 -0.11132151 3.678534 -12.960164 -0.10480269 3.748044
        -13.396177 -0.097856306 3.8145514 -13.847738 -0.09042796 3.877373
        -14.315972 -0.08245609 3.9357262 -14.802134 -0.07387072 3.9887147
        -15.307618 -0.064592324 4.035312 -15.833966 -0.054530665 4.074342
        -16.382872 -0.04358291 4.10446 -16.95618 -0.031631596 4.1241326
        -17.555904 -0.018542523 4.131619 -18.184214 -0.0041613 4.1249466
        -18.843454 0.011690855 4.101891 -19.536154 0.029221307 4.059954
        -20.265032 0.048673462 3.9963331 -21.033035 0.070334174 3.9078946
        -21.843353 0.09454491 3.791119 -22.699486 0.12171686 3.642067
        -23.605272 0.15234694 3.4562712 -24.564983 0.18704367 3.2286465
        -25.58339 0.22655794 2.9533432 -26.66586 0.2718255 2.62356
        -27.81847 0.32402295 2.2313018 -29.048168 0.38464355 1.7670597
        -30.362926 0.45559832 1.2193722 -31.772005 0.5393542 0.5742076
        -33.286163 0.6391146 -0.18594328 -34.917854 0.7590574 -1.0834023
        -36.681152 0.904645 -2.1472461 -38.591038 1.0829943 -3.4159987
        -40.66149 1.3033142 -4.941145 -42.90135 1.577343 -6.791214
        -45.306747 1.9196864 -9.055623 -47.84858 2.3477833 -11.846423
        -50.453823 2.881117 -15.294531 -52.980858 3.5389276 -19.534966
        -55.192467 4.3355675 -24.673344 -56.73684 5.2726903 -30.726719
        -57.156235 6.3282876 -37.537178 -55.9508 7.4449506 -44.67439
        -52.718876 8.523001 -51.372753 -47.359055 9.4268 -56.57438
        -40.25509 10.010309 -59.13625 -32.31556 10.160902 -58.174465
        -24.776678 9.8428135 -53.397064 -18.826492 9.108836 -45.227005
        -15.244856 8.079852 -34.630135 -14.24263 6.902281 -22.752838
        -0.1486454 0.1736908 0.30317307 -0.07028389 0.09690523 0.29125404
        -0.011260986 0.02592802 0.30330563 0.028347015 -0.03608823 0.32770348
        0.051818848 -0.08820009 0.35621214 0.06340408 -0.13083947 0.3839507
        -9.930014 -0.030078104 3.1554544 -10.269032 -0.021314446 3.2329814
        -10.618229 -0.012171771 3.310496 -10.978002 -0.0026074052 3.3877096
        -11.348802 0.0074278517 3.464298 -11.731149 0.01799034 3.539898
        -12.125636 0.02914467 3.6141 -12.532941 0.040964626 3.6864405
        -12.953835 0.05353445 3.7563934 -13.389194 0.066949904 3.8233607
        -13.840006 0.08131998 3.8866587 -14.307381 0.09676853 3.9455059
        -14.792559 0.11343607 3.9990072 -15.296919 0.13148253 4.046138
        -15.821982 0.15108931 4.0857234 -16.369421 0.17246334 4.1164236
        -16.941055 0.19584057 4.13671 -17.538868 0.2214911 4.144848
        -18.164993 0.24972534 4.1388736 -18.82174 0.2809018 4.1165757
        -19.511578 0.31543693 4.075471 -20.237171 0.35381782 4.0127797
        -21.001387 0.39661807 3.9253955 -21.80733 0.44451848 3.8098392
        -22.658377 0.4983362 3.6622217 -23.55823 0.55905646 3.478146
        -24.510973 0.62787926 3.252621 -25.521141 0.7062799 2.9799247
        -26.593807 0.7960868 2.6534307 -27.73466 0.8995857 2.2653823
        -28.95013 1.0196594 1.8066024 -30.247536 1.159971 1.2660971
        -31.635246 1.3252122 0.63049793 -33.122864 1.521426 -0.11674827
        -34.721317 1.756427 -0.99657613 -36.442707 2.0403283 -2.0360265
        -38.29949 2.3861728 -3.270642 -40.302555 2.8106427 -4.747543
        -42.4571 3.3347197 -6.528936 -44.755424 3.984104 -8.6952305
        -47.165073 4.788919 -11.346008 -49.61161 5.7819643 -14.595621
        -51.95655 6.994393 -18.558651 -53.974007 8.44732 -23.318394
        -55.33635 10.138271 -28.873102 -55.626266 12.022841 -35.05995
        -54.398895 13.995733 -41.472534 -51.3101 15.880934 -47.41241
        -46.294533 17.444567 -51.934685 -39.722675 18.440378 -54.033405
        -32.42694 18.6815 -52.938984 -25.523933 18.107668 -48.40014
        -20.08501 16.808224 -40.78627 -16.821095 14.987868 -30.939922
        -15.93825 12.895464 -19.867395 -0.21789551 0.13729095 0.4453144
        -0.13902664 0.076646805 0.40145302 -0.07442665 0.016567707 0.38577843
        -0.026699066 -0.038657665 0.38784504 0.0055599213 -0.08688855 0.39926958
        0.025503159 -0.12754965 0.41438675 -9.924252 0.08706025 3.163404
        -10.262927 0.09995168 3.2414596 -10.611729 0.11340245 3.3195324
        -10.971045 0.12747599 3.3973336 -11.341314 0.1422454 3.4745398
        -11.723051 0.15779454 3.5507863 -12.116832 0.17421947 3.625664
        -12.523324 0.19163014 3.6987085 -12.943282 0.21015167 3.769395
        -13.377565 0.22992659 3.8371248 -13.827145 0.25111714 3.9012153
        -14.293105 0.2739073 3.960886 -14.776667 0.29850626 4.015244
        -15.279179 0.32515126 4.0632668 -15.802134 0.3541121 4.1037855
        -16.347164 0.3856955 4.135465 -16.916052 0.4202514 4.156786
        -17.51073 0.45817956 4.166024 -18.13328 0.49993908 4.1612325
        -18.785936 0.5460589 4.1402187 -19.471096 0.597153 4.1005273
        -20.191322 0.653937 4.0394135 -20.949362 0.7172525 3.9538183
        -21.748175 0.78809446 3.8403273 -22.590954 0.86765444 3.6951346
        -23.481173 0.9573631 3.5139575 -24.422626 1.0589573 3.2919579
        -25.419487 1.174562 3.0236197 -26.47635 1.3067983 2.7025957
        -27.598309 1.4589257 2.3215117 -28.791006 1.6350291 1.8717163