<?xml version="1.0"?>
<VTKFile type="StructuredGrid" version="0.1" byte_order="LittleEndian" header_type="UInt32" compressor="vtkZLibDataCompressor">
  <StructuredGrid WholeExtent="0 60 0 20 0 20">
  <Piece Extent="0 60 0 20 0 20">
    <PointData Vectors="B_total">
      <DataArray type="Float32" Name="B_total" NumberOfComponents="3" format="ascii" RangeMin="0" RangeMax="56977.124411303186">
        -10.003111 -1.4337845 3.2031846 -10.340147 -1.4731188 3.2902594
        -10.686307 -1.5139967 3.378013 -11.04182 -1.5565933 3.46615
        -11.406949 -1.6011105 3.5543375 -11.782008 -1.6477805 3.642199
        -12.167359 -1.6968702 3.7293077 -12.563429 -1.7486833 3.8151824
        -12.970709 -1.8035654 3.8992786 -13.389762 -1.8619084 3.9809797
        -13.821235 -1.9241552 4.0595884 -14.265858 -1.9908044 4.1343155
        -14.724448 -2.0624173 4.2042685 -15.197916 -2.1396234 4.2684383
        -15.687258 -2.223127 4.3256893 -16.193554 -2.3137174 4.3747435
        -16.717962 -2.4122758 4.4141736 -17.261702 -2.519788 4.44239
        -17.826042 -2.6373572 4.457636 -18.412283 -2.7662187 4.457984
        -19.021715 -2.90776 4.441338 -19.655611 -3.0635414 4.405436
        -20.315187 -3.2353282 4.347863 -21.001556 -3.42512 4.2660637
        -21.71569 -3.6351943 4.157356 -22.458366 -3.8681512 4.0189557
        -23.230114 -4.126977 3.8479853 -24.031092 -4.4150953 3.6415095
        -24.860977 -4.7364492 3.396567 -25.718824 -5.095571 3.110228
        -26.602823 -5.497671 2.7796924 -27.510075 -5.9487147 2.4024458
        -28.436281 -6.455497 1.9764904 -29.37545 -7.0256968 1.5006596
        -30.319584 -7.667876 0.97502303 -31.25839 -8.391382 0.4013458
        -32.17904 -9.206083 -0.21642132 -33.065945 -10.121818 -0.8716455
        -33.9006 -11.147429 -1.5545481 -34.661415 -12.289213 -2.251716
        -35.32374 -13.548637 -2.945497 -35.86019 -14.919289 -3.613077
        -36.241783 -16.38317 -4.22507 -36.440613 -17.906898 -4.743625
        -36.43464 -19.438646 -5.120446 -36.215073 -20.907215 -5.2956505
        -35.79558 -22.224556 -5.1987376 -35.221455 -23.29284 -4.75281
        -34.575527 -24.015572 -3.8819766 -14.856788 -10.786248 -0.7707
        0.12354457 -0.13620853 0.627511 0.084323645 -0.11281586 0.6438608
        0.04065323 -0.10107422 0.6502981 -0.0022096634 -0.10126495 0.64680195
        -0.03973484 -0.11188698 0.63490844 -0.068938255 -0.1302414 0.61712205
        -0.08865404 -0.15315437 0.59627104 -0.099257946 -0.17770386 0.5748788
        -0.10217619 -0.20157862 0.55484533 -0.09929228 -0.22326565 0.5373355
        -0.09251785 -0.24196815 0.52287114 -10.044716 -1.33548 3.1953452
        -10.383326 -1.3715793 3.2806778 -10.731232 -1.4091027 3.3665354
        -11.088691 -1.4482118 3.4526196 -11.455997 -1.4890932 3.538592
        -11.833497 -1.5319622 3.6240726 -12.221593 -1.5770651 3.7086306
        -12.620749 -1.6246836 3.791779 -13.0315 -1.6751382 3.8729687
        -13.454463 -1.7287931 3.9515765 -13.890336 -1.7860599 4.026897
        -14.339911 -1.8474038 4.0981317 -14.804069 -1.9133492 4.164376
        -15.283792 -1.9844855 4.2246056 -15.780153 -2.0614753 4.2776656
        -16.294323 -2.1450632 4.3222556 -16.82755 -2.2360847 4.3569174
        -17.381166 -2.3354793 4.3800254 -17.956562 -2.4443045 4.3897767
        -18.555166 -2.5637522 4.3841867 -19.178434 -2.695172 4.361086
        -19.827822 -2.8400958 4.3181214 -20.504753 -3.0002708 4.252763
        -21.210592 -3.1776989 4.162305 -21.94661 -3.3746836 4.0438786
        -22.71392 -3.5938888 3.8944561 -23.513468 -3.8384106 3.71085
        -24.345877 -4.1118536 3.4897332 -25.211391 -4.4184303 3.2276468
        -26.109697 -4.7630687 2.9210348 -27.039734 -5.1515408 2.5663126
        -27.99944 -5.5905976 2.1599813 -28.985464 -6.0881176 1.6988084
        -29.992847 -6.6532445 1.1800647 -31.014648 -7.29649 0.60183334
        -32.041542 -8.029745 -0.036641836 -33.06136 -8.866111 -0.7345847
        -34.058495 -9.819412 -1.4892895 -35.013184 -10.903218 -2.295659
        -35.900578 -12.129095 -3.1455286 -36.68984 -13.50392 -4.0265355
        -37.343475 -15.02601 -4.920215 -37.817875 -16.680222 -5.7990403
        -38.06597 -18.432425 -6.6224356 -38.04348 -20.22457 -7.3325286
        -37.719387 -21.97208 -7.85113 -37.090004 -23.565865 -8.080274
        -36.193848 -24.880852 -7.908396 -35.12221 -25.791388 -7.2228484
        -34.020004 -26.190979 -5.926645 -24.47289 -19.307415 -2.7557254
        0.10405922 -0.08075905 0.7000141 0.0464921 -0.06683159 0.70867395
        -0.009383202 -0.068377495 0.7026639 -0.0572114 -0.08309364 0.6845479
        -0.09307861 -0.10714817 0.6583445 -0.11580086 -0.13621044 0.62838984
        -0.12640285 -0.16645718 0.5984014 -0.12723494 -0.19506693 0.5709872
        -0.1211009 -0.22034359 0.5476124 -0.11064911 -0.2415452 0.52876717
        -10.076541 -1.2315164 3.1854868 -10.416409 -1.2641526 3.2692153
        -10.765731 -1.2980833 3.3533373 -11.124785 -1.333455 3.4375513
        -11.493897 -1.3704381 3.5215166 -11.873443 -1.4092289 3.60485
        -12.263855 -1.4500523 3.687118 -12.665642 -1.4931655 3.7678318
        -13.079378 -1.538862 3.8464375 -13.505726 -1.5874748 3.9223082
        -13.945436 -1.6393819 3.9947329 -14.399353 -1.6950107 4.0629063
        -14.868422 -1.7548436 4.1259146 -15.353691 -1.8194256 4.1827216
        -15.856313 -1.8893702 4.2321577 -16.377535 -1.9653693 4.272902
        -16.918707 -2.0482032 4.303472 -17.481264 -2.138753 4.32221
        -18.066713 -2.2380154 4.327271 -18.676628 -2.3471224 4.316619
        -19.312626 -2.4673636 4.288017 -19.976347 -2.6002135 4.239025
        -20.669441 -2.7473693 4.167001 -21.39354 -2.910792 4.0690947
        -22.150225 -3.092762 3.9422507 -22.94101 -3.2959452 3.7831917
        -23.767267 -3.5234714 3.5884209 -24.630182 -3.7790334 3.3542023
        -25.530643 -4.0670056 3.0765548 -26.4691 -4.3925815 2.751252
        -27.445421 -4.761946 2.373853 -28.458624 -5.1824665 1.9397548
        -29.506626 -5.6629176 1.444299 -30.58592 -6.2137146 0.88290584
        -31.69116 -6.847141 0.25124207 -32.81465 -7.5774946 -0.45460463
        -33.945656 -8.42108 -1.2379421 -35.069412 -9.3958645 -2.1012564
        -36.16574 -10.520586 -3.0458374 -37.20719 -11.812965 -4.070962
        -38.15685 -13.286718 -5.172262 -38.966324 -14.946961 -6.338653
        -39.574963 -16.783989 -7.547428 -39.91213 -18.765709 -8.757402
        -39.904533 -20.8301 -9.901175 -39.49036 -22.879892 -10.878803
        -38.6399 -24.783108 -11.556694 -37.378876 -26.382505 -11.775603
        -35.80709 -27.515636 -11.369836 -34.10267 -28.042984 -10.195233
        -32.50502 -27.87632 -8.157842 -24.074505 -20.816921 -3.8542933
        0.052595615 -0.034008026 0.7860632 -0.01980114 -0.03732872 0.7760849
        -0.08022976 -0.05692768 0.7488489 -0.12368107 -0.08743954 0.7107167
        -0.14919853 -0.12313366 0.66826296 -0.15885353 -0.15920925 0.6268277
        -0.15634727 -0.1923604 0.58990514 -0.14572239 -0.22080421 0.55921197
        -0.13053656 -0.2439661 0.5350971 -10.099975 -1.1223693 3.1735651
        -10.44083 -1.1513422 3.2558222 -10.791279 -1.1814698 3.3383617
        -11.151622 -1.2128842 3.4208808 -11.522208 -1.2457378 3.5030375
        -11.903442 -1.2802063 3.5844464 -12.295792 -1.3164918 3.664674
        -12.699795 -1.3548253 3.7432287 -13.116067 -1.3954701 3.8195558
        -13.545312 -1.4387264 3.8930254 -13.988325 -1.4849343 3.9629235
        -14.446007 -1.5344802 4.0284395 -14.919356 -1.5878005 4.0886536
        -15.409488 -1.6453888 4.1425214 -15.917621 -1.7078034 4.1888595
        -16.445087 -1.7756754 4.226332 -16.993326 -1.8497193 4.2534356
        -17.56387 -1.9307452 4.268484 -18.158348 -2.0196753 4.269598
        -18.778471 -2.1175606 4.2546926 -19.426016 -2.2256072 4.2214694
        -20.102814 -2.3452034 4.1674085 -20.810745 -2.477959 4.089761
        -21.551714 -2.6257486 3.985537 -22.327627 -2.790771 3.8514993
        -23.140408 -2.9756205 3.684131 -23.991913 -3.1833742 3.4796212
        -24.883913 -3.4177015 3.2338238 -25.818014 -3.6829998 2.9422226
        -26.795563 -3.9845624 2.5998971 -27.81747 -4.328778 2.2014937
        -28.884064 -4.7233815 1.741216 -29.994823 -5.1777487 1.2128248
        -31.148094 -5.7032256 0.609639 -32.340656 -6.313481 -0.0754831
        -33.567154 -7.0248213 -0.8502105 -34.81917 -7.8563824 -1.7228327
        -36.083866 -8.830011 -2.7023377 -37.34183 -9.969568 -3.7982497
        -38.564167 -11.299307 -5.019845 -39.708725 -12.840754 -6.3740644
        -40.716137 -14.607629 -7.861267 -41.507034 -16.598366 -9.467955
        -41.982964 -18.786394 -11.156193 -42.03415 -21.109318 -12.850742
        -41.557518 -23.459995 -14.427309 -40.485443 -25.683954 -15.707469
        -38.821358 -27.588863 -16.467663 -36.671154 -28.969444 -16.466978
        -34.254498 -29.645473 -15.491606 -31.883394 -29.502674 -13.403324
        -29.907475 -28.521015 -10.172791 -13.706388 -12.847067 -2.35987
        -0.03397751 -0.01392746 0.86918545 -0.10933876 -0.038669586 0.8290911
        -0.16105175 -0.07565975 0.7747016 -0.1887579 -0.11761761 0.7157316
        -0.19616985 -0.158782 0.6596458 -0.18884277 -0.19547653 0.61096525
        -0.17237759 -0.22600508 0.5715441 -0.15141392 -0.2500825 0.54137444
        -10.116503 -1.0085421 3.1601129 -10.458119 -1.0336741 3.241038
        -10.80945 -1.0598134 3.322154 -11.170816 -1.0870757 3.4031572
        -11.542591 -1.1155944 3.4837055 -11.925202 -1.1455239 3.5634136
        -12.319146 -1.1770412 3.6418462 -12.72499 -1.2103491 3.7185128
        -13.143386 -1.2456793 3.7928574 -13.575073 -1.2832954 3.8642492
        -14.020893 -1.3234975 3.9319727 -14.481788 -1.366626 3.9952142
        -14.958814 -1.4130671 4.053049 -15.453139 -1.4632579 4.104426
        -15.966051 -1.517694 4.1481533 -16.498955 -1.5769376 4.182883
        -17.053371 -1.6416272 4.207092 -17.630932 -1.7124894 4.2190723
        -18.23338 -1.7903546 4.2169123 -18.86255 -1.8761749 4.1984854
        -19.520382 -1.9710473 4.161438 -20.20889 -2.0762434 4.1031756
        -20.93018 -2.1932456 4.0208516 -21.68642 -2.3237932 3.9113464
        -22.479858 -2.4699411 3.7712488 -23.312815 -2.6341329 3.596813
        -24.18765 -2.819292 3.3839242 -25.106749 -3.0289378 3.1280358
        -26.072477 -3.2673311 2.824102 -27.087116 -3.5396566 2.466501
        -28.15276 -3.8522534 2.0489492 -29.271183 -4.2128997 1.5644051
        -30.443663 -4.631164 1.0049511 -31.670723 -5.1188207 0.3616272
        -32.951763 -5.690318 -0.37581947 -34.28441 -6.3632607 -1.2192987
        -35.663483 -7.1588097 -2.1828604 -37.0792 -8.101846 -3.2831879
        -38.51439 -9.220595 -4.5398545 -39.940323 -10.545307 -5.974757
        -41.311165 -12.105324 -7.6098433 -42.557503 -13.92382 -9.461716
        -43.580715 -16.009453 -11.531844 -44.251213 -18.344624 -13.791298
        -44.415646 -20.87135 -16.160986 -43.91804 -23.477678 -18.491352
        -42.638454 -25.990845 -20.550184 -40.54492 -28.185139 -22.030485
        -37.743683 -29.810684 -22.588331 -34.50325 -30.642351 -21.910454
        -31.22933 -30.535421 -19.792885 -28.38683 -29.46597 -16.198017
        -26.393679 -27.536537 -11.261055 -0.051849365 -0.0066375732 0.9813671
        -0.14414978 -0.035713196 0.92413425 -0.20435238 -0.07781792 0.84871674
        -0.23323727 -0.12421703 0.7690449 -0.23685932 -0.16837215 0.6952305
        -0.22318363 -0.20651722 0.63281035 -0.19965553 -0.23720932 0.58358276
        -0.17205143 -0.26059198 0.5468842 -10.127596 -0.890601 3.1460695
        -10.469788 -0.91173697 3.2258182 -10.821795 -0.9337254 3.305684
        -11.18396 -0.9566644 3.385363 -11.556674 -0.9806676 3.4645138
        -11.940388 -1.005866 3.5427506 -12.335619 -1.0324107 3.6196396
        -12.742965 -1.0604743 3.6946898 -13.163105 -1.0902541 3.767346
        -13.596814 -1.1219754 3.836977 -14.044968 -1.1558944 3.9028666
        -14.508551 -1.1923025 3.9641995 -14.988666 -1.2315301 4.020048
        -15.486531 -1.2739528 4.069356 -16.003494 -1.3199972 4.110925
        -16.541027 -1.370148 4.143397 -17.100721 -1.4249574 4.1652346
        -17.684305 -1.4850563 4.174709 -18.293615 -1.551168 4.169883
        -18.930613 -1.624125 4.148593 -19.59738 -1.7048917 4.108436
        -20.296104 -1.7945905 4.046753 -21.0291 -1.8945378 3.9606073
        -21.7988 -2.0062869 3.8467627 -22.607763 -2.1316845 3.7016482
        -23.458704 -2.2729404 3.521306 -24.354464 -2.4327188 3.3013387
        -25.298044 -2.614252 3.0368216 -26.292568 -2.821487 2.7222042
        -27.341272 -3.0592725 2.351189 -28.44746 -3.3335981 1.916578
        -29.614433 -3.6518996 1.4100935 -30.84539 -4.0234404 0.8221202
        -32.143253 -4.459778 0.1413539 -33.510357 -4.97532 -0.645716
        -34.947845 -5.587935 -1.5555255 -36.4545 -6.319544 -2.6083941
        -38.024685 -7.1965637 -3.8295727 -39.64492 -8.249898 -5.25012
        -41.288517 -9.514069 -6.906847 -42.90806 -11.024715 -8.840129
        -44.42605 -12.813612 -11.087744 -45.725533 -14.900047 -13.672504
        -46.64443 -17.277786 -16.581696 -46.980255 -19.89807 -19.738596
        -46.51358 -22.65152 -22.97034 -45.05708 -25.356144 -25.984228
        -42.527668 -27.761667 -28.3708 -39.022907 -29.58052 -29.65264
        -34.864815 -30.546284 -29.382273 -30.573294 -30.48446 -27.263647
        -26.758574 -29.365932 -23.244719 -23.968445 -27.31596 -17.53175
        -22.556572 -24.572542 -10.513632 -0.18264008 -0.056797028 1.0285912
        -0.25094795 -0.10057926 0.9279442 -0.27972603 -0.14756966 0.82421875
        -0.27807045 -0.19094753 0.7304969 -0.2568035 -0.22717142 0.65324736
        -0.22540951 -0.25526524 0.59384775 -0.1907959 -0.27578878 0.55070263
        -10.134611 -0.7691787 3.1325815 -10.477222 -0.78618646 3.2113295
        -10.829739 -0.8038847 3.290137 -11.192511 -0.8223534 3.368701
        -11.565948 -0.84168524 3.446679 -11.95052 -0.8619869 3.5236876
        -12.346764 -0.88338137 3.5992928 -12.755301 -0.9060097 3.673005
        -13.176833 -0.93003297 3.744269 -13.612165 -0.9556352 3.8124545
        -14.062202 -0.983026 3.8768446 -14.527966 -1.0124439 3.936624
        -15.010596 -1.0441601 3.9908628 -15.511358 -1.0784831 4.0385017
        -16.031645 -1.1157637 4.0783367 -16.572987 -1.1564019 4.1090016
        -17.137045 -1.2008542 4.128947 -17.725618 -1.2496436 4.13643
        -18.340637 -1.3033714 4.1294885 -18.984167 -1.3627329 4.10593
        -19.65842 -1.4285353 4.063309 -20.365736 -1.5017228 3.9989102
        -21.10862 -1.5834074 3.909721 -21.889734 -1.6749076 3.7924006
        -22.711926 -1.7777994 3.6432393 -23.578268 -1.8939774 3.4580927
        -24.492054 -2.0257409 3.23231 -25.456844 -2.1758971 2.9606276
        -26.47648 -2.347898 2.6370382 -27.555117 -2.5460176 2.254623
        -28.69722 -2.7755802 1.8053405 -29.90758 -3.043258 1.279747
        -31.19131 -3.357448 0.6666123 -32.55377 -3.7287521 -0.047634013
        -34.000336 -4.1705537 -0.8796958 -35.53588 -4.6996922 -1.8505244
        -37.163593 -5.337182 -2.9867892 -38.882744 -6.108858 -4.322614
        -40.684685 -7.0457053 -5.901223 -42.54645 -8.183451 -7.775651
        -44.421333 -9.560739 -10.007081 -46.226425 -11.214791 -12.658255
        -47.8289 -13.173329 -15.778898 -49.035316 -15.441435 -19.379768
        -49.592087 -17.983107 -23.39406 -49.209473 -20.700073 -27.630674
        -47.6205 -23.414925 -31.734201 -44.676147 -25.871084 -35.178947
        -40.454082 -27.76264 -37.32727 -35.330154 -28.798414 -37.564487
        -29.953629 -28.78371 -35.47595 -25.10486 -27.684734 -30.988197
        -21.484299 -25.640669 -24.394526 -19.530912 -22.915382 -16.245766
        -0.22056389 -0.10976601 1.1314049 -0.2959175 -0.14939022 1.0035572
        -0.32336617 -0.1909771 0.87469006 -0.31549263 -0.22817707 0.7608967
        -0.2861805 -0.2580433 0.6692977 -0.24693108 -0.28013182 0.60054207
        -0.20565033 -0.29533958 0.5518162 -10.138715 -0.644957 3.1208124
        -10.481623 -0.6577283 3.1987574 -10.834502 -0.67102224 3.276719
        -11.197718 -0.68489975 3.3543942 -11.571689 -0.6994314 3.4314413
        -11.956901 -0.7146986 3.5074778 -12.353908 -0.73079515 3.5820708
        -12.763345 -0.74782866 3.654731 -13.185939 -0.7659222 3.7249045
        -13.622514 -0.78521645 3.7919614 -14.074 -0.80587167 3.855186
        -14.541449 -0.82807064 3.913761 -15.026028 -0.8520212 3.9667559
        -15.52904 -0.8779603 4.0131097 -16.05192 -0.9061576 4.051614
        -16.596243 -0.9369215 4.0808954 -17.163721 -0.9706042 4.099398
        -17.75622 -1.0076104 4.1053643 -18.375742 -1.0484068 4.096816
        -19.024443 -1.093534 4.071534 -19.704634 -1.1436218 4.027042
        -20.418789 -1.1994095 3.9605758 -21.169569 -1.2617704 3.869062
        -21.959831 -1.3317451 3.7490754 -22.792673 -1.4105786 3.5967884
        -23.671465 -1.4997792 3.4079049 -24.599884 -1.6011825 3.1775622
        -25.581984 -1.7170417 2.9002118 -26.622229 -1.8501427 2.5694575
        -27.725573 -2.0039544 2.1778524 -28.897518 -2.182828 1.7166255
        -30.144203 -2.3922544 1.1753204 -31.472475 -2.6392007 0.5412806
        -32.889946 -2.9325411 -0.20108184 -34.40485 -3.2835867 -1.0713503
        -36.025654 -3.7067385 -2.0946064 -37.759903 -4.2201986 -3.3034148
        -39.611916 -4.846699 -4.7402697 -41.578377 -5.6140237 -6.460089
        -43.641136 -6.555005 -8.531903 -45.75599 -7.7063503 -11.037937
        -47.837387 -9.105333 -14.06716 -49.74031 -10.783015 -17.699001
        -51.2438 -12.75247 -21.972486 -52.046127 -14.99131 -26.837431
        -51.787277 -17.420137 -32.0916 -50.116146 -19.883402 -37.321255
        -46.80885 -22.14516 -41.881615 -41.91339 -23.914713 -44.96248
        -35.85423 -24.908358 -45.762455 -29.413347 -24.932533 -43.73077
        -23.551235 -23.95172 -38.766705 -19.130442 -22.102589 -31.25981
        -16.678106 -19.644283 -21.940628 -16.02433 -16.59018 -11.408866
        -0.33229256 -0.22567272 1.0630894 -0.3576908 -0.2544775 0.9118538
        -0.34376717 -0.2792282 0.7809353 -0.30722046 -0.29790735 0.6777024
        -0.26129723 -0.31051445 0.6018851 -0.21462917 -0.31807137 0.5493306
        -10.140844 -0.51864254 3.1117954 -10.483945 -0.52709496 3.189154
        -10.837066 -0.5358973 3.2664995 -11.20058 -0.5450908 3.3435287
        -11.574915 -0.55472314 3.4199018 -11.960567 -0.5648497 3.4952354
        -12.358103 -0.5755337 3.5690985 -12.768168 -0.5868483 3.641002
        -13.191506 -0.5988769 3.7103932 -13.628956 -0.6117151 3.7766423
        -14.081468 -0.6254718 3.839034 -14.550109 -0.64027125 3.896751
        -15.036077 -0.65625507 3.9488623 -15.540692 -0.6735849 3.994305
        -16.065426 -0.6924449 4.031868 -16.611885 -0.71304595 4.060174
        -17.181824 -0.73562944 4.07766 -17.777147 -0.76047325 4.08256
        -18.39992 -0.7878985 4.0728827 -19.052359 -0.81827766 4.0463905
        -19.736858 -0.8520465 4.0005817 -20.455988 -0.8897171 3.9326603
        -21.212528 -0.9318961 3.8395045 -22.00948 -0.9793091 3.7176263
        -22.850138 -1.032825 3.5631132 -23.73809 -1.0935013 3.3715494
        -24.677326 -1.1626287 3.1379166 -25.672266 -1.2417965 2.8564477
        -26.727867 -1.3329779 2.5204518 -27.849714 -1.4386389 2.1220746
        -29.04413 -1.5618876 1.6519808 -30.318325 -1.7066643 1.098922
        -31.68055 -1.877996 0.44912362 -33.140244 -2.082323 -0.31460655
        -34.70802 -2.3279145 -1.2141626 -36.395344 -2.6253748 -2.277968
        -38.21352 -2.9882336 -3.5434191 -40.17128 -3.4335666 -5.0599527
        -42.27028 -3.982533 -6.892354 -44.49714 -4.660555 -9.1233635
        -46.811016 -5.496718 -11.853682 -49.12583 -6.5215893 -15.195875
        -51.288383 -7.7623844 -19.257154 -53.05651 -9.23409 -24.104515
        -54.08876 -10.925652 -29.707184 -53.964172 -12.78204 -35.858692
        -52.255234 -14.68702 -42.09818 -48.666283 -16.457073 -47.675453
        -43.211906 -17.859932 -51.620506 -36.35472 -18.664389 -52.953827
        -28.994806 -18.709427 -50.991707 -22.257553 -17.963333 -45.604843
        -17.154415 -16.537432 -37.27381 -14.291553 -14.643907 -26.90023
        -13.767004 -12.523582 -15.484923 -0.35226822 -0.32407665 1.0928612
        -0.37590218 -0.33314514 0.9269314 -0.35756874 -0.33986998 0.785409
        -0.31611443 -0.34331846 0.675673 -0.26595497 -0.3437593 0.5965185
        -0.21612453 -0.34198475 0.5427418 -10.141676 -0.39094666 3.1063275
        -10.484883 -0.3950248 3.1833315 -10.838139 -0.3992768 3.2603045
        -11.201819 -0.40372363 3.336944 -11.576364 -0.40838972 3.4129107
        -11.962269 -0.41330326 3.487822 -12.360109 -0.4184968 3.5612462
        -12.770542 -0.42400768 3.632696 -13.194316 -0.42987886 3.7016182
        -13.63228 -0.43615934 3.767384 -14.085396 -0.44290525 3.829278
        -14.554747 -0.45018068 3.8864832 -15.041536 -0.4580587 3.9380682
        -15.547111 -0.46662304 3.9829686 -16.07295 -0.4759691 4.019972
        -16.620687 -0.4862064 4.047699 -17.1921 -0.4974607 4.0645823
        -17.789125 -0.50987697 4.0688496 -18.413855 -0.523623 4.0585027
        -19.068554 -0.53889424 4.031293 -19.755663 -0.55591935 3.984703
        -20.47781 -0.57496804 3.9159155 -21.237852 -0.5963603 3.8217802
        -22.038887 -0.62048066 3.6987705 -22.88432 -0.6477877 3.5429192
        -23.777897 -0.678843 3.349739 -24.723787 -0.71433276 3.1141105
        -25.726658 -0.7551031 2.8301322 -26.791779 -0.8022055 2.4909267
        -27.925138 -0.8569575 2.0883815 -29.133595 -0.9210212 1.6128011
        -30.425064 -0.99650764 1.0524337 -31.808712 -1.0861162 0.39277902
        -33.2952 -1.1933116 -0.3843931 -34.896713 -1.3225536 -1.3024861
        -36.626762 -1.479581 -2.3921163 -38.499207 -1.671744 -3.6938918
        -40.525883 -1.9083666 -5.261895 -42.71198 -2.201079 -7.1675797
        -45.047718 -2.5639834 -9.503091 -47.495087 -3.0134206 -12.381952
        -49.9685 -3.566908 -15.933475 -52.31024 -4.240635 -20.285019
        -54.264828 -5.044671 -25.524652 -55.464466 -5.975257 -31.637592
        -55.44612 -7.0044017 -38.417385 -53.72785 -8.069336 -45.372692
        -49.960743 -9.067867 -51.679718 -44.132065 -9.868255 -56.25289
        -36.72849 -10.337971 -57.98087 -28.733057 -10.381754 -56.079704
        -21.389809 -9.978214 -50.396946 -15.8176 -9.190272 -41.47989
        -12.678905 -8.139803 -30.356232 -12.067051 -6.964854 -18.160685
        -0.34973526 -0.43150187 1.0824986 -0.37290382 -0.41684914 0.91378975
        -0.35317612 -0.40257907 0.7711725 -0.31040764 -0.38888407 0.6618538
        -0.25941658 -0.37609744 0.5841007 -0.20934296 -0.36451268 0.53216004
        -10.141623 -0.26257533 3.1049075 -10.484856 -0.26225188 3.1817977
        -10.838146 -0.2619244 3.258651 -11.201873 -0.26159352 3.3351655
        -11.576474 -0.26125997 3.4110017 -11.962454 -0.2609247 3.4857764
        -12.360385 -0.26058877 3.5590594 -12.770928 -0.26025364 3.6303627
        -13.194835 -0.25992092 3.6991336 -13.632958 -0.25959268 3.7647438
        -14.086263 -0.2592713 3.826477 -14.555836 -0.25895977 3.883517
        -15.042887 -0.25866163 3.934931 -15.548765 -0.2583811 3.979656
        -16.07496 -0.25812334 4.0164785 -16.623112 -0.25789458 4.044017
        -17.195004 -0.25770205 4.060704 -17.792582 -0.2575548 4.064766
        -18.417955 -0.2574636 4.054199 -19.073399 -0.25744125 4.0267544
        -19.76137 -0.25750354 3.9799068 -20.484524 -0.25766924 3.910833
        -21.245739 -0.25796133 3.816372 -22.048147 -0.25840878 3.6929843
        -22.895199 -0.2590424 3.536684 -23.790688 -0.25990397 3.3429582
        -24.738855 -0.26104274 3.106653 -25.744457 -0.26251864 2.8218198
        -26.812876 -0.26440424 2.4815156 -27.95025 -0.2667878 2.0775356
        -29.16364 -0.26977658 1.6000608 -30.461206 -0.27350003 1.0371535
        -31.852478 -0.27811426 0.3740595 -33.348545 -0.28380865 -0.40782827
        -34.962204 -0.29080826 -1.332458 -36.707733 -0.29937962 -2.4312508
        -38.599945 -0.30983767 -3.7459824 -40.651886 -0.32254258 -5.332453
        -42.870113 -0.33790725 -7.2646 -45.24627 -0.3563896 -9.638069
        -47.743553 -0.37848812 -12.571252 -50.27675 -0.40473634 -16.19984
        -52.68669 -0.4356869 -20.659002 -54.71321 -0.4718547 -26.045174
        -55.978813 -0.5135717 -32.350197 -56.00479 -0.56060696 -39.36853
        -54.288292 -0.61155784 -46.59802 -50.459457 -0.6632652 -53.187492
        -44.493683 -0.7111497 -58.007076 -36.885754 -0.7512988 -59.894115
        -28.650438 -0.7765897 -58.02427 -21.07692 -0.78135026 -52.234695
        -15.325525 -0.76508915 -43.097366 -12.080965 -0.7309607 -31.688587
        -11.435524 -0.6838959 -19.19477 -0.32284927 -0.52970576 1.0295792
        -0.3473091 -0.49230748 0.8717766 -0.32986832 -0.45809948 0.7385931
        -0.2898903 -0.4283688 0.6370897 -0.24184799 -0.40343028 0.56556225
        -0.19458294 -0.3830135 0.5184376 -10.140822 -0.13422869 3.1077046
        -10.484004 -0.12950477 3.184725 -10.837232 -0.12459906 3.2617147
        -11.200886 -0.11949174 3.338371 -11.575399 -0.1141599 3.4143546
        -11.961275 -0.10857721 3.4892826 -12.359083 -0.10271336 3.5627234
        -12.769483 -0.096533716 3.6341898 -13.19322 -0.08999877 3.7031286
        -13.631148 -0.08306348 3.768911 -14.084228 -0.07567664 3.830821
        -14.553537 -0.06777999 3.888042 -15.040287 -0.059307482 3.939642
        -15.545818 -0.05018406 3.9845572 -16.071615 -0.040324263 4.021575
        -16.61931 -0.029631121 4.049315 -17.19068 -0.017993491 4.066211
        -17.787663 -0.005284248 4.0704894 -18.412354 0.008643089 4.060152
        -19.067015 0.023958229 4.032951 -19.754091 0.040858734 3.9863672
        -20.476217 0.059576914 3.9175835 -21.236246 0.08038734 3.823449
        -22.037287 0.10361663 3.7004354 -22.882748 0.12966299 3.5445757
        -23.776384 0.15900522 3.3513799 -24.722378 0.19223204 3.1157267
        -25.72541 0.23007153 2.8317099 -26.790771 0.2734326 2.4924467
        -27.924482 0.3234595 2.089816 -29.133438 0.38160467 1.6141117
        -30.425598 0.4497261 1.0535575 -31.810211 0.5302187 0.3936268
        -33.29801 0.62618273 -0.38395762 -34.901314 0.7416449 -1.3026725
        -36.63378 0.88183355 -2.3932407 -38.50946 1.0535053 -3.6964357
        -40.540447 1.2653084 -5.266593 -42.732193 1.5281123 -7.1755357
        -45.07524 1.8551948 -9.515954 -47.531845 2.2620146 -12.402153
        -50.016582 2.7651806 -15.964473 -52.371605 3.3799708 -20.33163
        -54.340813 4.1156483 -25.59322 -55.555023 4.968019 -31.7359
        -55.548813 5.9096494 -38.553963 -53.836933 6.8804235 -45.555386
        -50.06652 7.7837815 -51.913174 -44.221405 8.4958935 -56.535877
        -36.788055 8.8923235 -58.30402 -28.754074 8.889825 -56.425465
        -21.369522 8.476931 -50.74274 -15.760201 7.71789 -41.80365
        -12.594397 6.729292 -30.641125 -11.96814 5.640598 -18.397724
        -0.27545166 -0.60112286 0.9419689 -0.30256844 -0.54709744 0.80680656
        -0.2905407 -0.49806547 0.6920061 -0.25694275 -0.45634723 0.60445404
        -0.21510887 -0.42234147 0.5430517 -0.17332649 -0.39538193 0.50305176
        -10.139138 -0.0066067073 3.114549 -10.48219 0.002488044 3.1919405
        -10.835258 0.011940484 3.2693193 -11.198715 0.021790639 3.3463821
        -11.572992 0.032084737 3.4227889 -11.958584 0.042876087 3.498156
        -12.356054 0.054225996 3.5720525 -12.766053 0.06620462 3.6439896
        -13.189322 0.0788921 3.7134137 -13.626698 0.09237999 3.7796955
        -14.079135 0.10677235 3.8421195 -14.547698 0.1221876 3.899868
        -15.033583 0.13876031 3.95201 -15.538116 0.15664372 3.997482
        -16.062765 0.17601182 4.0350733 -16.609137 0.19706333 4.063406
        -17.17899 0.22002512 4.080918 -17.77423 0.24515766 4.08584
        -18.396921 0.27276066 4.0761824 -19.049288 0.30318162 4.0497074
        -19.733725 0.33682573 4.0039115 -20.452808 0.37416828 3.935998
        -21.209324 0.41577184 3.842844 -22.006287 0.4623057 3.7209594
        -22.846996 0.51458037 3.56643 -23.735065 0.5735724 3.374836
        -24.674501 0.64047986 3.1411543 -25.669756 0.71677905 2.859611
        -26.72583 0.8043063 2.5235038 -27.848358 0.90536547 2.1249611
        -29.043737 1.0228667 1.6546239 -30.31928 1.1605165 1.101206
        -31.683365 1.323062 0.45087326 -33.1456 1.5166159 -0.31365305
        -34.71682 1.7490609 -1.2144048 -36.40879 2.03056 -2.2800074
        -38.23317 2.3741465 -3.5481734 -40.199142 2.796348 -5.0688066
        -42.30888 3.3177454 -6.90738 -44.549557 3.9631767 -9.14765
        -46.88079 4.761169 -11.891722 -49.216766 5.741794 -15.254073
        -51.403946 6.9318714 -19.344307 -53.198956 8.34616 -24.232124
        -54.25768 9.973698 -29.889212 -54.154724 11.760263 -36.11032
        -52.456493 13.591775 -42.43309 -48.860435 15.288668 -48.10158
        -43.375755 16.624077 -52.1351 -36.464878 17.373169 -53.539795
        -29.03461 17.382866 -51.61788 -22.221684 16.628067 -46.231483
        -17.050423 15.221788 -37.861736 -14.137468 13.373468 -27.419256
        -13.58577 11.31855 -15.918602 -0.21600151 -0.63521194 0.8355522
        -0.24592781 -0.5737982 0.72974586 -0.2409935 -0.5175681 0.6385498
        -0.21595955 -0.46973276 0.56852674 -0.18243408 -0.4309728 0.5194473
        -0.14787006 -0.40054607 0.48779893 -10.136165 0.11958506 3.1249409
        -10.478996 0.13299297 3.2029357 -10.831797 0.14693102 3.2809474
        -11.194929 0.16145884 3.3586726 -11.568813 0.17664546 3.4357703
        -11.953935 0.19257054 3.5118573 -12.350845 0.20932555 3.5865004
        -12.760182 0.22701535 3.659211 -13.182673 0.2457597 3.7294338
        -13.619139 0.26569515 3.79654 -14.070514 0.28697735 3.8598127
        -14.537845 0.3097831 3.9184353 -15.022304 0.33431336 3.9714763
        -15.525192 0.36079672 4.0178747 -16.047945 0.3894931 4.0564218
        -16.59214 0.42069852 4.085744 -17.159492 0.45475125 4.104285
        -17.751863 0.4920388 4.1102853 -18.371267 0.53300726 4.101767
        -19.01986 0.5781725 4.076512 -19.699955 0.62813497 4.032039
        -20.414043 0.6835989 3.9655862 -21.164783 0.7453946 3.8740766
        -21.955055 0.8145093 3.7540822 -22.787975 0.892132 3.6017728
        -23.666931 0.97969556 3.412847 -24.595638 1.0789474 3.1824346
        -25.57819 1.1920365 2.9049778 -26.61911 1.3216232 2.5740643
        -27.72343 1.4710273 2.1822236 -28.896757 1.6444248 1.720649