# vtk DataFile Version 3.0
T01 + IGRF magnetic field in GSW coordinates
ASCII
DATASET STRUCTURED_GRID
DIMENSIONS     61    21    21
POINTS    26901 float
     -50.000000     -10.000000     -10.000000
     -49.000000     -10.000000     -10.000000
     -48.000000     -10.000000     -10.000000
     -47.000000     -10.000000     -10.000000
     -46.000000     -10.000000     -10.000000
     -45.000000     -10.000000     -10.000000
     -44.000000     -10.000000     -10.000000
     -43.000000     -10.000000     -10.000000
     -42.000000     -10.000000     -10.000000
     -41.000000     -10.000000     -10.000000
     -40.000000     -10.000000     -10.000000
     -39.000000     -10.000000     -10.000000
     -38.000000     -10.000000     -10.000000
     -37.000000     -10.000000     -10.000000
     -36.000000     -10.000000     -10.000000
     -35.000000     -10.000000     -10.000000
     -34.000000     -10.000000     -10.000000
     -33.000000     -10.000000     -10.000000
     -32.000000     -10.000000     -10.000000
     -31.000000     -10.000000     -10.000000
     -30.000000     -10.000000     -10.000000
     -29.000000     -10.000000     -10.000000
     -28.000000     -10.000000     -10.000000
     -27.000000     -10.000000     -10.000000
     -26.000000     -10.000000     -10.000000
     -25.000000     -10.000000     -10.000000
     -24.000000     -10.000000     -10.000000
     -23.000000     -10.000000     -10.000000
     -22.000000     -10.000000     -10.000000
     -21.000000     -10.000000     -10.000000
     -20.000000     -10.000000     -10.000000
     -19.000000     -10.000000     -10.000000
     -18.000000     -10.000000     -10.000000
     -17.000000     -10.000000     -10.000000
     -16.000000     -10.000000     -10.000000
     -15.000000     -10.000000     -10.000000
     -14.000000     -10.000000     -10.000000
     -13.000000     -10.000000     -10.000000
     -12.000000     -10.000000     -10.000000
     -11.000000     -10.000000     -10.000000
     -10.000000     -10.000000     -10.000000
      -9.000000     -10.000000     -10.000000
      -8.000000     -10.000000     -10.000000
      -7.000000     -10.000000     -10.000000
      -6.000000     -10.000000     -10.000000
      -5.000000     -10.000000     -10.000000
      -4.000000     -10.000000     -10.000000
      -3.000000     -10.000000     -10.000000
      -2.000000     -10.000000     -10.000000
      -1.000000     -10.000000     -10.000000
       0.000000     -10.000000     -10.000000
       1.000000     -10.000000     -10.000000
       2.000000     -10.000000     -10.000000
       3.000000     -10.000000     -10.000000
       4.000000     -10.000000     -10.000000
       5.000000     -10.000000     -10.000000
       6.000000     -10.000000     -10.000000
       7.000000     -10.000000     -10.000000
       8.000000     -10.000000     -10.000000
       9.000000     -10.000000     -10.000000
      10.000000     -10.000000     -10.000000
     -50.000000      -9.000000     -10.000000
     -49.000000      -9.000000     -10.000000
     -48.000000      -9.000000     -10.000000
     -47.000000      -9.000000     -10.000000
     -46.000000      -9.000000     -10.000000
     -45.000000      -9.000000     -10.000000
     -44.000000      -9.000000     -10.000000
     -43.000000      -9.000000     -10.000000
     -42.000000      -9.000000     -10.000000
     -41.000000      -9.000000     -10.000000
     -40.000000      -9.000000     -10.000000
     -39.000000      -9.000000     -10.000000
     -38.000000      -9.000000     -10.000000
     -37.000000      -9.000000     -10.000000
     -36.000000      -9.000000     -10.000000
     -35.000000      -9.000000     -10.000000
     -34.000000      -9.000000     -10.000000
     -33.000000      -9.000000     -10.000000
     -32.000000      -9.000000     -10.000000
     -31.000000      -9.000000     -10.000000
     -30.000000      -9.000000     -10.000000
     -29.000000      -9.000000     -10.000000
     -28.000000      -9.000000     -10.000000
     -27.000000      -9.000000     -10.000000
     -26.000000      -9.000000     -10.000000
     -25.000000      -9.000000     -10.000000
     -24.000000      -9.000000     -10.000000
     -23.000000      -9.000000     -10.000000
     -22.000000      -9.000000     -10.000000
     -21.000000      -9.000000     -10.000000
     -20.000000      -9.000000     -10.000000
     -19.000000      -9.000000     -10.000000
     -18.000000      -9.000000     -10.000000
     -17.000000      -9.000000     -10.000000
     -16.000000      -9.000000     -10.000000
     -15.000000      -9.000000     -10.000000
     -14.000000      -9.000000     -10.000000
     -13.000000      -9.000000     -10.000000
     -12.000000      -9.000000     -10.000000
     -11.000000      -9.000000     -10.000000
     -10.000000      -9.000000     -10.000000
      -9.000000      -9.000000     -10.000000
      -8.000000      -9.000000     -10.000000
      -7.000000      -9.000000     -10.000000
      -6.000000      -9.000000     -10.000000
      -5.000000      -9.000000     -10.000000
      -4.000000      -9.000000     -10.000000
      -3.000000      -9.000000     -10.000000
      -2.000000      -9.000000     -10.000000
      -1.000000      -9.000000     -10.000000
       0.000000      -9.000000     -10.000000
       1.000000      -9.000000     -10.000000
       2.000000      -9.000000     -10.000000
       3.000000      -9.000000     -10.000000
       4.000000      -9.000000     -10.000000
       5.000000      -9.000000     -10.000000
       6.000000      -9.000000     -10.000000
       7.000000      -9.000000     -10.000000
       8.000000      -9.000000     -10.000000
       9.000000      -9.000000     -10.000000
      10.000000      -9.000000     -10.000000
     -50.000000      -8.000000     -10.000000
     -49.000000      -8.000000     -10.000000
     -48.000000      -8.000000     -10.000000
     -47.000000      -8.000000     -10.000000
     -46.000000      -8.000000     -10.000000
     -45.000000      -8.000000     -10.000000
     -44.000000      -8.000000     -10.000000
     -43.000000      -8.000000     -10.000000
     -42.000000      -8.000000     -10.000000
     -41.000000      -8.000000     -10.000000
     -40.000000      -8.000000     -10.000000
     -39.000000      -8.000000     -10.000000
     -38.000000      -8.000000     -10.000000
     -37.000000      -8.000000     -10.000000
     -36.000000      -8.000000     -10.000000
     -35.000000      -8.000000     -10.000000
     -34.000000      -8.000000     -10.000000
     -33.000000      -8.000000     -10.000000
     -32.000000      -8.000000     -10.000000
     -31.000000      -8.000000     -10.000000
     -30.000000      -8.000000     -10.000000
     -29.000000      -8.000000     -10.000000
     -28.000000      -8.000000     -10.000000
     -27.000000      -8.000000     -10.000000
     -26.000000      -8.000000     -10.000000
     -25.000000      -8.000000     -10.000000
     -24.000000      -8.000000     -10.000000
     -23.000000      -8.000000     -10.000000
     -22.000000      -8.000000     -10.000000
     -21.000000      -8.000000     -10.000000
     -20.000000      -8.000000     -10.000000
     -19.000000      -8.000000     -10.000000
     -18.000000      -8.000000     -10.000000
     -17.000000      -8.000000     -10.000000
     -16.000000      -8.000000     -10.000000
     -15.000000      -8.000000     -10.000000
     -14.000000      -8.000000     -10.000000
     -13.000000      -8.000000     -10.000000
     -12.000000      -8.000000     -10.000000
     -11.000000      -8.000000     -10.000000
     -10.000000      -8.000000     -10.000000
      -9.000000      -8.000000     -10.000000
      -8.000000      -8.000000     -10.000000
      -7.000000      -8.000000     -10.000000
      -6.000000      -8.000000     -10.000000
      -5.000000      -8.000000     -10.000000
      -4.000000      -8.000000     -10.000000
      -3.000000      -8.000000     -10.000000
      -2.000000      -8.000000     -10.000000
      -1.000000      -8.000000     -10.000000
       0.000000      -8.000000     -10.000000
       1.000000      -8.000000     -10.000000
       2.000000      -8.000000     -10.000000
       3.000000      -8.000000     -10.000000
       4.000000      -8.000000     -10.000000
       5.000000      -8.000000     -10.000000
       6.000000      -8.000000     -10.000000
       7.000000      -8.000000     -10.000000
       8.000000      -8.000000     -10.000000
       9.000000      -8.000000     -10.000000
      10.000000      -8.000000     -10.000000
     -50.000000      -7.000000     -10.000000
     -49.000000      -7.000000     -10.000000
     -48.000000      -7.000000     -10.000000
     -47.000000      -7.000000     -10.000000
     -46.000000      -7.000000     -10.000000
     -45.000000      -7.000000     -10.000000
     -44.000000      -7.000000     -10.000000
     -43.000000      -7.000000     -10.000000
     -42.000000      -7.000000     -10.000000
     -41.000000      -7.000000     -10.000000
     -40.000000      -7.000000     -10.000000
     -39.000000      -7.000000     -10.000000
     -38.000000      -7.000000     -10.000000
     -37.000000      -7.000000     -10.000000
     -36.000000      -7.000000     -10.000000
     -35.000000      -7.000000     -10.000000
     -34.000000      -7.000000     -10.000000
     -33.000000      -7.000000     -10.000000
     -32.000000      -7.000000     -10.000000
     -31.000000      -7.000000     -10.000000
     -30.000000      -7.000000     -10.000000
     -29.000000      -7.000000     -10.000000
     -28.000000      -7.000000     -10.000000
     -27.000000      -7.000000     -10.000000
     -26.000000      -7.000000     -10.000000
     -25.000000      -7.000000     -10.000000
[...]
POINT_DATA    26901
VECTORS B_total float
  -1.0355449E+01  -1.5275406E+00   3.1698015E+00
  -1.0700631E+01  -1.5693964E+00   3.2580392E+00
  -1.1054770E+01  -1.6127539E+00   3.3470204E+00
  -1.1418054E+01  -1.6577773E+00   3.4364276E+00
  -1.1790719E+01  -1.7046579E+00   3.5259004E+00
  -1.2173038E+01  -1.7536159E+00   3.6150289E+00
  -1.2565337E+01  -1.8049049E+00   3.7033498E+00
  -1.2968005E+01  -1.8588145E+00   3.7903390E+00
  -1.3381494E+01  -1.9156746E+00   3.8754027E+00
  -1.3806324E+01  -1.9758589E+00   3.9578698E+00
  -1.4243100E+01  -2.0397906E+00   4.0369825E+00
  -1.4692509E+01  -2.1079459E+00   4.1118860E+00
  -1.5155322E+01  -2.1808603E+00   4.1816149E+00
  -1.5632399E+01  -2.2591333E+00   4.2450843E+00
  -1.6124687E+01  -2.3434374E+00   4.3010764E+00
  -1.6633213E+01  -2.4345229E+00   4.3482308E+00
  -1.7159071E+01  -2.5332284E+00   4.3850341E+00
  -1.7703426E+01  -2.6404915E+00   4.4098101E+00
  -1.8267475E+01  -2.7573602E+00   4.4207211E+00
  -1.8852442E+01  -2.8850095E+00   4.4157596E+00
  -1.9459543E+01  -3.0247605E+00   4.3927574E+00
  -2.0089962E+01  -3.1781013E+00   4.3493929E+00
  -2.0744812E+01  -3.3467183E+00   4.2832050E+00
  -2.1425100E+01  -3.5325279E+00   4.1916075E+00
  -2.2131678E+01  -3.7377186E+00   4.0719109E+00
  -2.2865179E+01  -3.9648004E+00   3.9213457E+00
  -2.3625957E+01  -4.2166595E+00   3.7370894E+00
  -2.4413980E+01  -4.4966264E+00   3.5162942E+00
  -2.5228701E+01  -4.8085451E+00   3.2561321E+00
  -2.6068888E+01  -5.1568584E+00   2.9538686E+00
  -2.6932419E+01  -5.5466881E+00   2.6069648E+00
  -2.7816013E+01  -5.9839306E+00   2.2132523E+00
  -2.8714947E+01  -6.4753289E+00   1.7711716E+00
  -2.9622730E+01  -7.0285397E+00   1.2801042E+00
  -3.0530809E+01  -7.6521349E+00   7.4077594E-01
  -3.1428265E+01  -8.3554926E+00   1.5573160E-01
  -3.2301552E+01  -9.1485214E+00  -4.7016978E-01
  -3.3134308E+01  -1.0041064E+01  -1.1292430E+00
  -3.3907135E+01  -1.1041863E+01  -1.8104885E+00
  -3.4597507E+01  -1.2156893E+01  -2.4990511E+00
  -3.5179779E+01  -1.3386929E+01  -3.1755211E+00
  -3.5625629E+01  -1.4724310E+01  -3.8148665E+00
  -3.5905369E+01  -1.6149054E+01  -4.3848367E+00
  -3.5990814E+01  -1.7624853E+01  -4.8437924E+00
  -3.5860565E+01  -1.9095982E+01  -5.1385117E+00
  -3.5507793E+01  -2.0486395E+01  -5.2028613E+00
  -3.4950008E+01  -2.1702612E+01  -4.9587927E+00
  -3.4238491E+01  -2.2641216E+01  -4.3207226E+00
  -3.3464088E+01  -2.3200851E+01  -3.2033293E+00
   6.2649369E-02  -4.2668152E-01   2.5043297E-01
   9.3413591E-02  -4.0853310E-01   2.6171017E-01
   1.1747646E-01  -3.8534927E-01   2.8139496E-01
   1.3276291E-01  -3.5959721E-01   3.0722570E-01
   1.3867950E-01  -3.3394241E-01   3.3635926E-01
   1.3605070E-01  -3.1069756E-01   3.6599278E-01
   1.2671280E-01  -2.9145336E-01   3.9383984E-01
   1.1295509E-01  -2.7694321E-01   4.1838920E-01
   9.6997738E-02  -2.6714754E-01   4.3891388E-01
   8.0667496E-02  -2.6152563E-01   4.5533085E-01
   6.5249443E-02  -2.5925875E-01   4.6799028E-01
   5.1510811E-02  -2.5947213E-01   4.7744775E-01
  -1.0400354E+01  -1.4229099E+00   3.1614876E+00
  -1.0746994E+01  -1.4612594E+00   3.2478344E+00
  -1.1102746E+01  -1.5009789E+00   3.3347538E+00
  -1.1467828E+01  -1.5422190E+00   3.4219227E+00
  -1.1842499E+01  -1.5851549E+00   3.5089757E+00
  -1.2227068E+01  -1.6299886E+00   3.5954978E+00
  -1.2621898E+01  -1.6769532E+00   3.6810207E+00
  -1.3027411E+01  -1.7263148E+00   3.7650142E+00
  -1.3444102E+01  -1.7783777E+00   3.8468788E+00
  -1.3872540E+01  -1.8334864E+00   3.9259367E+00
  -1.4313378E+01  -1.8920325E+00   4.0014219E+00
  -1.4767356E+01  -1.9544569E+00   4.0724688E+00
  -1.5235302E+01  -2.0212574E+00   4.1381021E+00
  -1.5718143E+01  -2.0929930E+00   4.1972222E+00
  -1.6216888E+01  -2.1702924E+00   4.2485948E+00
  -1.6732643E+01  -2.2538602E+00   4.2908378E+00
  -1.7266590E+01  -2.3444893E+00   4.3224111E+00
  -1.7819979E+01  -2.4430695E+00   4.3416080E+00
  -1.8394115E+01  -2.5506034E+00   4.3465481E+00
  -1.8990343E+01  -2.6682241E+00   4.3351746E+00
  -1.9610016E+01  -2.7972138E+00   4.3052540E+00
  -2.0254484E+01  -2.9390342E+00   4.2543817E+00
  -2.0925047E+01  -3.0953557E+00   4.1799884E+00
  -2.1622942E+01  -3.2680998E+00   4.0793486E+00
  -2.2349293E+01  -3.4594865E+00   3.9495938E+00
  -2.3105053E+01  -3.6720932E+00   3.7877169E+00
  -2.3890961E+01  -3.9089258E+00   3.5905979E+00
  -2.4707434E+01  -4.1735029E+00   3.3550012E+00
  -2.5554455E+01  -4.4699545E+00   3.0776105E+00
  -2.6431423E+01  -4.8031330E+00   2.7550724E+00
  -2.7336945E+01  -5.1787496E+00   2.3840685E+00
  -2.8268591E+01  -5.6035175E+00   1.9614462E+00
  -2.9222597E+01  -6.0853052E+00   1.4843960E+00
  -3.0193558E+01  -6.6332874E+00   9.5069617E-01
  -3.1174038E+01  -7.2580442E+00   3.5901153E-01
  -3.2154160E+01  -7.9715662E+00  -2.9077169E-01
  -3.3121120E+01  -8.7870684E+00  -9.9718028E-01
  -3.4058578E+01  -9.7184525E+00  -1.7567629E+00
  -3.4945854E+01  -1.0779236E+01  -2.5635910E+00
  -3.5756992E+01  -1.1980701E+01  -3.4085093E+00
  -3.6459816E+01  -1.3329020E+01  -4.2778511E+00
  -3.7015339E+01  -1.4821218E+01  -5.1513052E+00
  -3.7378387E+01  -1.6440014E+01  -5.9985924E+00
  -3.7500664E+01  -1.8148159E+01  -6.7751141E+00
  -3.7337448E+01  -1.9883366E+01  -7.4173045E+00
  -3.6858772E+01  -2.1555794E+01  -7.8394051E+00
  -3.6064312E+01  -2.3050426E+01  -7.9341488E+00
  -3.4998768E+01  -2.4236322E+01  -7.5795374E+00
  -3.3762516E+01  -2.4982960E+01  -6.6523781E+00
  -3.2511311E+01  -2.5181063E+01  -5.0462303E+00
  -2.8230343E+00  -2.6586761E+00  -6.4715385E-02
   1.4477301E-01  -3.5978508E-01   2.3255348E-01
   1.6078138E-01  -3.2976151E-01   2.6817226E-01
   1.6456509E-01  -3.0128765E-01   3.0740356E-01
   1.5769768E-01  -2.7704906E-01   3.4629440E-01
   1.4303303E-01  -2.5860977E-01   3.8175964E-01
   1.2380695E-01  -2.4639511E-01   4.1202700E-01
   1.0295391E-01  -2.3990297E-01   4.3646544E-01
   8.2670212E-02  -2.3807049E-01   4.5529816E-01
   6.4364910E-02  -2.3966551E-01   4.6925670E-01
   4.8710823E-02  -2.4350071E-01   4.7926235E-01
  -1.0432589E+01  -1.3119941E+00   3.1507783E+00
  -1.0780294E+01  -1.3466239E+00   3.2353764E+00
  -1.1137251E+01  -1.3824860E+00   3.3204000E+00
  -1.1503699E+01  -1.4197162E+00   3.4055228E+00
  -1.1879928E+01  -1.4584734E+00   3.4903758E+00
  -1.2266273E+01  -1.4989405E+00   3.5745420E+00
  -1.2663129E+01  -1.5413285E+00   3.6575496E+00
  -1.3070954E+01  -1.5858793E+00   3.7388654E+00
  -1.3490284E+01  -1.6328691E+00   3.8178864E+00
  -1.3921730E+01  -1.6826119E+00   3.8939309E+00
  -1.4365988E+01  -1.7354647E+00   3.9662290E+00
  -1.4823850E+01  -1.7918305E+00   4.0339088E+00
  -1.5296201E+01  -1.8521656E+00   4.0959878E+00
  -1.5784023E+01  -1.9169836E+00   4.1513567E+00
  -1.6288397E+01  -1.9868642E+00   4.1987696E+00
  -1.6810499E+01  -2.0624607E+00   4.2368283E+00
  -1.7351593E+01  -2.1445096E+00   4.2639737E+00
  -1.7913019E+01  -2.2338438E+00   4.2784719E+00
  -1.8496193E+01  -2.3314071E+00   4.2784090E+00
  -1.9102579E+01  -2.4382722E+00   4.2616835E+00
  -1.9733675E+01  -2.5556650E+00   4.2260051E+00
  -2.0390997E+01  -2.6849916E+00   4.1688914E+00
  -2.1076059E+01  -2.8278754E+00   4.0876703E+00
  -2.1790335E+01  -2.9862015E+00   3.9794831E+00
  -2.2535242E+01  -3.1621709E+00   3.8412807E+00
  -2.3312098E+01  -3.3583660E+00   3.6698296E+00
  -2.4122065E+01  -3.5778370E+00   3.4616966E+00
  -2.4966080E+01  -3.8241980E+00   3.2132518E+00
  -2.5844757E+01  -4.1017504E+00   2.9206669E+00
  -2.6758249E+01  -4.4156275E+00   2.5799239E+00
  -2.7706074E+01  -4.7719707E+00   2.1868522E+00
  -2.8686890E+01  -5.1781321E+00   1.7371899E+00
  -2.9698229E+01  -5.6429052E+00   1.2266812E+00
  -3.0736170E+01  -6.1767693E+00   6.5120101E-01
  -3.1794937E+01  -6.7921138E+00   6.9042370E-03
  -3.2866344E+01  -7.5033808E+00  -7.0963323E-01
  -3.3939091E+01  -8.3270264E+00  -1.5012577E+00
  -3.4997684E+01  -9.2811317E+00  -2.3700233E+00
  -3.6020981E+01  -1.0384411E+01  -3.3167899E+00
  -3.6980221E+01  -1.1654310E+01  -4.3403068E+00
  -3.7836815E+01  -1.3103848E+01  -5.4353642E+00
  -3.8540257E+01  -1.4736795E+01  -6.5893984E+00
  -3.9027576E+01  -1.6541260E+01  -7.7770929E+00
  -3.9225872E+01  -1.8481859E+01  -8.9529848E+00
  -3.9060352E+01  -2.0492077E+01  -1.0043154E+01
  -3.8469353E+01  -2.2469015E+01  -1.0938574E+01
  -3.7426048E+01  -2.4274284E+01  -1.1494105E+01
  -3.5962837E+01  -2.5744337E+01  -1.1537456E+01
  -3.4190189E+01  -2.6711826E+01  -1.0890222E+01
  -3.2299793E+01  -2.7035158E+01  -9.3982220E+00
  -3.0544569E+01  -2.6627838E+01  -6.9620004E+00
  -3.9780660E+00  -3.8724480E+00  -3.4550476E-01
   1.9188499E-01  -2.7960968E-01   2.3145676E-01
   1.9141388E-01  -2.5007439E-01   2.8302288E-01
   1.7814159E-01  -2.2733593E-01   3.3249426E-01
   1.5633392E-01  -2.1261501E-01   3.7604094E-01
   1.3042355E-01  -2.0565224E-01   4.1177297E-01
   1.0408401E-01  -2.0514774E-01   4.3939221E-01
   7.9806328E-02  -2.0937443E-01   4.5969683E-01
   5.8938980E-02  -2.1661043E-01   4.7399813E-01
   4.1918278E-02  -2.2539377E-01   4.8369569E-01
  -1.0454197E+01  -1.1951039E+00   3.1372485E+00
  -1.0802649E+01  -1.2258242E+00   3.2202265E+00
  -1.1160472E+01  -1.2576343E+00   3.3035069E+00
  -1.1527933E+01  -1.2906555E+00   3.3867612E+00
  -1.1905341E+01  -1.3250284E+00   3.4696198E+00
  -1.2293059E+01  -1.3609164E+00   3.5516634E+00
  -1.2691513E+01  -1.3985077E+00   3.6324198E+00
  -1.3101195E+01  -1.4380182E+00   3.7113547E+00
  -1.3522672E+01  -1.4796948E+00   3.7878652E+00
  -1.3956594E+01  -1.5238190E+00   3.8612671E+00
  -1.4403703E+01  -1.5707104E+00   3.9307890E+00
  -1.4864834E+01  -1.6207316E+00   3.9955568E+00
  -1.5340925E+01  -1.6742933E+00   4.0545840E+00
  -1.5833015E+01  -1.7318598E+00   4.1067557E+00
  -1.6342245E+01  -1.7939558E+00   4.1508179E+00
  -1.6869862E+01  -1.8611755E+00   4.1853628E+00
  -1.7417208E+01  -1.9341918E+00   4.2088146E+00
  -1.7985716E+01  -2.0137687E+00   4.2194200E+00
  -1.8576904E+01  -2.1007767E+00   4.2152367E+00
  -1.9192354E+01  -2.1962116E+00   4.1941261E+00
  -1.9833714E+01  -2.3012185E+00   4.1537447E+00
  -2.0502672E+01  -2.4171216E+00   4.0915403E+00
  -2.1200951E+01  -2.5454607E+00   4.0047479E+00
  -2.1930275E+01  -2.6880383E+00   3.8903787E+00
  -2.2692373E+01  -2.8469796E+00   3.7452126E+00
  -2.3488937E+01  -3.0248013E+00   3.5657876E+00
  -2.4321600E+01  -3.2245057E+00   3.3483684E+00
  -2.5191860E+01  -3.4496899E+00   3.0889258E+00
  -2.6101036E+01  -3.7046878E+00   2.7831054E+00
  -2.7050140E+01  -3.9947386E+00   2.4262006E+00
  -2.8039749E+01  -4.3261995E+00   2.0131330E+00
  -2.9069824E+01  -4.7068024E+00   1.5384357E+00
  -3.0139479E+01  -5.1459522E+00   9.9624550E-01
  -3.1246683E+01  -5.6550708E+00   3.8027853E-01
  -3.2387833E+01  -6.2479424E+00  -3.1622261E-01
  -3.3557133E+01  -6.9410257E+00  -1.1005994E+00
  -3.4745644E+01  -7.7536077E+00  -1.9809147E+00
  -3.5939781E+01  -8.7076321E+00  -2.9660404E+00
  -3.7119106E+01  -9.8269320E+00  -4.0654716E+00
  -3.8253227E+01  -1.1135443E+01  -5.2884026E+00
  -3.9297951E+01  -1.2653975E+01  -6.6414089E+00
  -4.0191254E+01  -1.4394855E+01  -8.1237450E+00
  -4.0850670E+01  -1.6354282E+01  -9.7195148E+00
  -4.1174515E+01  -1.8502314E+01  -1.1386326E+01
  -4.1050419E+01  -2.0771929E+01  -1.3041639E+01
  -4.0374416E+01  -2.3050070E+01  -1.4550385E+01
  -3.9081314E+01  -2.5175556E+01  -1.5719999E+01
  -3.7181801E+01  -2.6949535E+01  -1.6310570E+01
  -3.4794479E+01  -2.8161873E+01  -1.6065248E+01
  -3.2156155E+01  -2.8631104E+01  -1.4758479E+01
  -2.9596645E+01  -2.8246534E+01  -1.2247948E+01
  -2.7478291E+01  -2.6996563E+01  -8.5090170E+00
   2.2407627E-01  -2.0357704E-01   2.0586300E-01
   2.1626186E-01  -1.7629433E-01   2.7129650E-01
   1.9387245E-01  -1.5913296E-01   3.3156013E-01
   1.6302681E-01  -1.5238762E-01   3.8225746E-01
   1.2950993E-01  -1.5462112E-01   4.2176723E-01
   9.7629547E-02  -1.6346169E-01   4.5061541E-01
   6.9917679E-02  -1.7635250E-01   4.7048640E-01
   4.7399521E-02  -1.9111872E-01   4.8345700E-01
   3.0038834E-02  -2.0612764E-01   4.9149144E-01
  -1.0467362E+01  -1.0726157E+00   3.1213610E+00
  -1.0816310E+01  -1.0992560E+00   3.2028558E+00
  -1.1174734E+01  -1.1268398E+00   3.2845516E+00
  -1.1542920E+01  -1.1554725E+00   3.3661203E+00
  -1.1921202E+01  -1.1852771E+00   3.4471912E+00
  -1.2309965E+01  -1.2163959E+00   3.5273464E+00
  -1.2709661E+01  -1.2489930E+00   3.6061134E+00
  -1.3120809E+01  -1.2832576E+00   3.6829593E+00
  -1.3544008E+01  -1.3194053E+00   3.7572813E+00
  -1.3979946E+01  -1.3576827E+00   3.8283963E+00
  -1.4429401E+01  -1.3983706E+00   3.8955338E+00
  -1.4893251E+01  -1.4417875E+00   3.9578185E+00
  -1.5372480E+01  -1.4882950E+00   4.0142627E+00
  -1.5868178E+01  -1.5383031E+00   4.0637498E+00
  -1.6381546E+01  -1.5922766E+00   4.1050210E+00
  -1.6913891E+01  -1.6507430E+00   4.1366606E+00
  -1.7466635E+01  -1.7143022E+00   4.1570830E+00
  -1.8041292E+01  -1.7836380E+00   4.1645193E+00
  -1.8639477E+01  -1.8595335E+00   4.1570034E+00
  -1.9262899E+01  -1.9428891E+00   4.1323643E+00
  -1.9913338E+01  -2.0347457E+00   4.0882134E+00
  -2.0592653E+01  -2.1363151E+00   4.0219359E+00
  -2.1302771E+01  -2.2490153E+00   3.9306791E+00
  -2.2045671E+01  -2.3745189E+00   3.8113360E+00
  -2.2823395E+01  -2.5148122E+00   3.6605246E+00
  -2.3638016E+01  -2.6722662E+00   3.4745653E+00
  -2.4491642E+01  -2.8497357E+00   3.2494304E+00
  -2.5386368E+01  -3.0506718E+00   2.9807003E+00
  -2.6324245E+01  -3.2792752E+00   2.6635008E+00
  -2.7307220E+01  -3.5406818E+00   2.2924309E+00
  -2.8337029E+01  -3.8411977E+00   1.8614805E+00
  -2.9415089E+01  -4.1885972E+00   1.3639265E+00
  -3.0542318E+01  -4.5924730E+00   7.9219943E-01
  -3.1718895E+01  -5.0646615E+00   1.3767613E-01
  -3.2943863E+01  -5.6197062E+00  -6.0961294E-01
  -3.4214447E+01  -6.2753239E+00  -1.4614053E+00
  -3.5524944E+01  -7.0527787E+00  -2.4317412E+00
  -3.6864822E+01  -7.9769793E+00  -3.5374837E+00
  -3.8215778E+01  -9.0760365E+00  -4.7985358E+00
  -3.9547409E+01  -1.0379797E+01  -6.2371397E+00
  -4.0811493E+01  -1.1916759E+01  -7.8752899E+00
  -4.1935486E+01  -1.3708624E+01  -9.7288885E+00
  -4.2816963E+01  -1.5761734E+01  -1.1797235E+01
  -4.3322205E+01  -1.8055069E+01  -1.4046827E+01
  -4.3294155E+01  -2.0525953E+01  -1.6390533E+01
  -4.2574986E+01  -2.3056564E+01  -1.8666395E+01
  -4.1046661E+01  -2.5467533E+01  -2.0625248E+01
  -3.8685020E+01  -2.7526814E+01  -2.1939831E+01
  -3.5611435E+01  -2.8980406E+01  -2.2246344E+01
  -3.2115807E+01  -2.9603188E+01  -2.1217203E+01
  -2.8626957E+01  -2.9256138E+01  -1.8645290E+01
  -2.5626953E+01  -2.7926540E+01  -1.4503349E+01
  -2.3536964E+01  -2.5731133E+01  -8.9472446E+00
   2.3446751E-01  -7.8769684E-02   2.8395367E-01
   1.9991112E-01  -7.2828293E-02   3.5288429E-01
   1.5844917E-01  -7.9471588E-02   4.0738297E-01
   1.1712456E-01  -9.5505714E-02   4.4688797E-01
   8.0533981E-02  -1.1721420E-01   4.7330356E-01
   5.0827026E-02  -1.4127445E-01   4.8959029E-01
   2.8300285E-02  -1.6517639E-01   4.9873275E-01
   1.2209892E-02  -1.8735409E-01   5.0323272E-01
  -1.0474242E+01  -9.4503611E-01   3.1042418E+00
  -1.0823497E+01  -9.6744382E-01   3.1844108E+00
  -1.1182320E+01  -9.9064517E-01   3.2647004E+00
  -1.1551011E+01  -1.0147293E+00   3.3447828E+00
  -1.1929924E+01  -1.0398002E+00   3.4242887E+00
  -1.2319465E+01  -1.0659784E+00   3.5028005E+00
  -1.2720105E+01  -1.0934036E+00   3.5798478E+00
  -1.3132393E+01  -1.1222357E+00   3.6548996E+00
  -1.3556954E+01  -1.1526581E+00   3.7273545E+00
  -1.3994506E+01  -1.1848807E+00   3.7965322E+00
  -1.4445861E+01  -1.2191424E+00   3.8616621E+00
  -1.4911933E+01  -1.2557153E+00   3.9218721E+00
  -1.5393746E+01  -1.2949078E+00   3.9761748E+00
  -1.5892439E+01  -1.3370711E+00   4.0234518E+00
  -1.6409264E+01  -1.3826044E+00   4.0624437E+00
  -1.6945585E+01  -1.4319611E+00   4.0917292E+00
  -1.7502892E+01  -1.4856594E+00   4.1097159E+00
  -1.8082775E+01  -1.5442915E+00   4.1146216E+00
  -1.8686945E+01  -1.6085384E+00   4.1044626E+00
  -1.9317213E+01  -1.6791866E+00   4.0770402E+00
  -1.9975496E+01  -1.7571501E+00   4.0299277E+00
  -2.0663811E+01  -1.8434969E+00   3.9604535E+00
  -2.1384275E+01  -1.9394857E+00   3.8656874E+00
  -2.2139112E+01  -2.0466089E+00   3.7424157E+00
  -2.2930662E+01  -2.1666496E+00   3.5871077E+00
  -2.3761366E+01  -2.3017514E+00   3.3958850E+00
  -2.4633797E+01  -2.4545128E+00   3.1644452E+00
  -2.5550640E+01  -2.6281018E+00   2.8880012E+00
  -2.6514690E+01  -2.8264053E+00   2.5611830E+00
  -2.7528826E+01  -3.0542190E+00   2.1779189E+00
  -2.8595985E+01  -3.3174949E+00   1.7312870E+00
  -2.9719105E+01  -3.6236472E+00   1.2133138E+00
  -3.0901028E+01  -3.9819391E+00   6.1470425E-01
  -3.2144344E+01  -4.4039526E+00  -7.5560905E-02
  -3.3451042E+01  -4.9041352E+00  -8.7079775E-01
  -3.4821857E+01  -5.5003872E+00  -1.7874048E+00
  -3.6255043E+01  -6.2146297E+00  -2.8458729E+00
  -3.7744171E+01  -7.0731745E+00  -4.0718784E+00
  -3.9274506E+01  -8.1066408E+00  -5.4970951E+00
  -4.0817478E+01  -9.3489475E+00  -7.1589961E+00
  -4.2322994E+01  -1.0834700E+01  -9.0983553E+00
  -4.3709988E+01  -1.2593985E+01  -1.1352530E+01
  -4.4857090E+01  -1.4643594E+01  -1.3942299E+01
  -4.5597328E+01  -1.6973782E+01  -1.6850260E+01
  -4.5723648E+01  -1.9531185E+01  -1.9990940E+01
  -4.5013939E+01  -2.2200895E+01  -2.3177494E+01
  -4.3282387E+01  -2.4794977E+01  -2.6097473E+01
  -4.0454460E+01  -2.7058025E+01  -2.8317289E+01
  -3.6645370E+01  -2.8700020E+01  -2.9335426E+01
  -3.2203136E+01  -2.9456739E+01  -2.8687386E+01
  -2.7676556E+01  -2.9161964E+01  -2.6075010E+01
  -2.3697792E+01  -2.7800217E+01  -2.1462753E+01
  -2.0819201E+01  -2.5512669E+01  -1.5088115E+01
  -1.3929790E+01  -1.6279461E+01  -5.2340975E+00
   1.9023514E-01   2.5905609E-02   4.0713882E-01
   1.3746071E-01   2.6988983E-04   4.5871830E-01
   8.9361191E-02  -3.3800125E-02   4.9170113E-01
   5.0137520E-02  -7.1208954E-02   5.1007557E-01
   2.0898819E-02  -1.0804796E-01   5.1835442E-01
   7.8964233E-04  -1.4184141E-01   5.2040923E-01
  -1.1936188E-02  -1.7135978E-01   5.1909083E-01
  -1.0476829E+01  -8.1301725E-01   3.0873885E+00
  -1.0826260E+01  -8.3105963E-01   3.1664181E+00
  -1.1185332E+01  -8.4974205E-01   3.2455060E+00
  -1.1554364E+01  -8.6913693E-01   3.3243260E+00
  -1.1933719E+01  -8.8932872E-01   3.4025095E+00
  -1.2323823E+01  -9.1041535E-01   3.4796410E+00
  -1.2725167E+01  -9.3251020E-01   3.5552523E+00
  -1.3138319E+01  -9.5574355E-01   3.6288137E+00
  -1.3563930E+01  -9.8026478E-01   3.6997268E+00
  -1.4002740E+01  -1.0062449E+00   3.7673137E+00
  -1.4455591E+01  -1.0338788E+00   3.8308065E+00
  -1.4923430E+01  -1.0633886E+00   3.8893349E+00
  -1.5407314E+01  -1.0950270E+00   3.9419119E+00
  -1.5908422E+01  -1.1290815E+00   3.9874225E+00
  -1.6428049E+01  -1.1658796E+00   4.0246034E+00
  -1.6967613E+01  -1.2057952E+00   4.0520334E+00
  -1.7528656E+01  -1.2492548E+00   4.0681124E+00
  -1.8112843E+01  -1.2967491E+00   4.0710502E+00
  -1.8721960E+01  -1.3488430E+00   4.0588479E+00
  -1.9357918E+01  -1.4061913E+00   4.0292845E+00
  -2.0022745E+01  -1.4695584E+00   3.9799004E+00
  -2.0718601E+01  -1.5398407E+00   3.9079771E+00
  -2.1447784E+01  -1.6180996E+00   3.8105175E+00
  -2.2212729E+01  -1.7055991E+00   3.6842139E+00
  -2.3016043E+01  -1.8038572E+00   3.5254064E+00
  -2.3860512E+01  -1.9147085E+00   3.3300390E+00
  -2.4749140E+01  -2.0403895E+00   3.0935676E+00
  -2.5685150E+01  -2.1836443E+00   2.8108752E+00
  -2.6672035E+01  -2.3478613E+00   2.4761405E+00
  -2.7713573E+01  -2.5372548E+00   2.0826790E+00
  -2.8813845E+01  -2.7570944E+00   1.6227221E+00
  -2.9977266E+01  -3.0140038E+00   1.0871263E+00
  -3.1208590E+01  -3.3163419E+00   4.6495682E-01