<?xml version="1.0"?>
<VTKFile type="StructuredGrid" version="0.1" byte_order="LittleEndian" header_type="UInt32" compressor="vtkZLibDataCompressor">
  <StructuredGrid WholeExtent="0 60 0 20 0 20">
  <Piece Extent="0 60 0 20 0 20">
    <PointData Vectors="B_total">
      <DataArray type="Float32" Name="B_total" NumberOfComponents="3" format="ascii" RangeMin="0" RangeMax="58338.97980856628">
        -9.27401 -1.1798785 3.2630932 -9.594218 -1.2125736 3.3477979
        -9.923875 -1.2469271 3.4331007 -10.263274 -1.2831379 3.518762
        -10.612752 -1.3214333 3.604516 -10.972689 -1.3620725 3.6900618
        -11.343523 -1.4053502 3.775064 -11.725759 -1.4516007 3.8591425
        -12.119966 -1.5012028 3.9418695 -12.526795 -1.5545844 4.0227594
        -12.946981 -1.6122279 4.1012588 -13.381351 -1.6746767 4.176738
        -13.830822 -1.7425413 4.2484765 -14.296412 -1.8165071 4.315652
        -14.779235 -1.8973415 4.3773246 -15.280498 -1.9859039 4.432424
        -15.801495 -2.0831544 4.479734 -16.343596 -2.1901665 4.5178804
        -16.90823 -2.3081377 4.5453196 -17.496866 -2.438405 4.560331
        -18.110996 -2.5824633 4.5610123 -18.752104 -2.7419846 4.545279
        -19.421635 -2.9188433 4.5108705 -20.120964 -3.1151452 4.455353
        -20.851374 -3.3332655 4.3761325 -21.614 -3.5758946 4.2704577
        -22.409786 -3.8460765 4.1354394 -23.239416 -4.1472864 3.9680412
        -24.103218 -4.4834876 3.7651026 -25.001032 -4.8592057 3.5233588
        -25.932032 -5.2796097 3.2394967 -26.89451 -5.7505913 2.9102664
        -27.885614 -6.278845 2.5326414 -28.901098 -6.8719387 2.1040816
        -29.935024 -7.538356 1.6228496 -30.979559 -8.287485 1.0883843
        -32.024727 -9.129507 0.50167763 -33.058197 -10.075071 -0.13439381
        -34.06502 -11.134673 -0.81480193 -35.02722 -12.317516 -1.5321348
        -35.92331 -13.62971 -2.2762625 -36.72781 -15.071648 -3.0336547
        -37.411274 -16.634518 -3.7860835 -37.941505 -18.296322 -4.508539
        -38.286976 -20.018063 -5.1666427 -38.423096 -21.741276 -5.714324
        -38.341373 -23.388515 -6.093164 -38.05996 -24.86818 -6.234773
        -37.632736 -26.0842 -6.0671077 -37.153397 -26.949532 -5.524089
        -11.54991 -8.804066 -1.1162629 -0.085493326 -0.3733549 0.43826246
        -0.07479787 -0.39670086 0.4301138 -0.058923483 -0.4152422 0.42484236
        -0.04002714 -0.42762852 0.42307305 -0.02043438 -0.4335146 0.42479968
        -0.002137661 -0.4334526 0.4294865 0.013489246 -0.42857647 0.43630004
        0.025750637 -0.42025185 0.44433784 0.0345397 -0.40982962 0.45277578
        0.040135384 -0.39843416 0.46099216 -9.320025 -1.1006287 3.2644935
        -9.642434 -1.130812 3.347975 -9.974509 -1.162554 3.431931
        -10.31657 -1.1960404 3.516119 -10.668985 -1.2314829 3.6002672
        -11.032173 -1.2691233 3.6840723 -11.406612 -1.3092363 3.767193
        -11.79285 -1.3521339 3.8492455 -12.191509 -1.3981695 3.9297953
        -12.603296 -1.4477433 4.008348 -13.029007 -1.5013067 4.084342
        -13.469541 -1.5593687 4.1571336 -13.925893 -1.6225034 4.225988
        -14.399167 -1.6913557 4.290061 -14.890576 -1.7666502 4.348388
        -15.401434 -1.8492007 4.3998647 -15.933154 -1.9399202 4.4432344
        -16.48724 -2.0398324 4.477071 -17.065271 -2.150086 4.499768
        -17.668886 -2.2719703 4.509528 -18.299763 -2.4069355 4.5043554
        -18.959595 -2.5566134 4.482052 -19.650078 -2.722849 4.440216
        -20.372866 -2.907733 4.3762474 -21.129562 -3.1136441 4.287344
        -21.921679 -3.3433068 4.1705008 -22.75059 -3.5998366 4.022514
        -23.617485 -3.886837 3.8399575 -24.523275 -4.2084723 3.6191838
        -25.46846 -4.569569 3.3563242 -26.452969 -4.9757366 3.0473204
        -27.47594 -5.433488 2.687993 -28.535463 -5.950389 2.2741776
        -29.628302 -6.535203 1.8019276 -30.749584 -7.198033 1.2677635
        -31.892511 -7.9504337 0.6689639 -33.047962 -8.805403 0.0038292408
        -34.20405 -9.777197 -0.7280863 -35.345375 -10.880734 -1.5257926
        -36.45202 -12.130423 -2.3865888 -37.49817 -13.53809 -3.305455
        -38.450592 -15.109735 -4.2737236 -39.267708 -16.841034 -5.2765703
        -39.900307 -18.71172 -6.289108 -40.295498 -20.679756 -7.2714863
        -40.405304 -22.676825 -8.164283 -40.200005 -24.60738 -8.886337
        -39.684532 -26.353733 -9.337606 -38.913544 -27.78865 -9.40877
        -37.999134 -28.794357 -8.996908 -37.105957 -29.283937 -8.023856
        -15.113788 -12.288511 -2.4228044 -0.09939408 -0.40805626 0.39751148
        -0.07682562 -0.43254852 0.38854647 -0.05028391 -0.4485197 0.38554287
        -0.023300648 -0.45567322 0.38830376 0.0012359619 -0.45496845 0.39578605
        0.021497726 -0.44813251 0.40648985 0.036731243 -0.43714142 0.4188707
        0.047029972 -0.42382526 0.4316331 0.053013325 -0.40965986 0.4438259
        -9.362614 -1.0177587 3.2660234 -9.687069 -1.0451682 3.3484094
        -10.021388 -1.0740157 3.431159 -10.36592 -1.1044716 3.514026
        -10.721061 -1.1367301 3.5967348 -11.087261 -1.1710129 3.6789784
        -11.465039 -1.207572 3.7604113 -11.854982 -1.246694 3.840644
        -12.25776 -1.2887033 3.9192357 -12.674133 -1.3339682 3.9956853
        -13.104958 -1.3829043 4.0694213 -13.551194 -1.4359813 4.139788
        -14.013916 -1.4937292 4.206034 -14.494309 -1.5567458 4.2672963
        -14.993675 -1.6257037 4.322583 -15.513436 -1.7013606 4.37076
        -16.055119 -1.7845697 4.4105277 -16.620358 -1.8762912 4.440412
        -17.210876 -1.9776068 4.458744 -17.828484 -2.0897374 4.4636507
        -18.475042 -2.2140625 4.4530425 -19.15247 -2.3521464 4.4246097
        -19.862703 -2.505767 4.375813 -20.607697 -2.6769574 4.3038826
        -21.38939 -2.8680513 4.2058043 -22.209696 -3.0817351 4.078324
        -23.070465 -3.3211322 3.9179063 -23.973444 -3.5898786 3.720721
        -24.920202 -3.8922348 3.4826121 -25.91201 -4.2332044 3.1990685
        -26.949707 -4.618688 2.8652225 -28.033484 -5.055658 2.4758747
        -29.162645 -5.5523634 2.0255764 -30.335348 -6.1185694 1.5087441
        -31.54829 -6.7658134 0.91982013 -32.79633 -7.5076447 0.2534036
        -34.072006 -8.359809 -0.49564815 -35.364777 -9.340205 -1.332202
        -36.659794 -10.468477 -2.2608325 -37.93611 -11.764894 -3.2856019
        -39.164127 -13.248146 -4.4092445 -40.30263 -14.931612 -5.631089
        -41.29631 -16.81781 -6.9430485 -42.075306 -18.89098 -8.323243
        -42.559288 -21.108711 -9.72769 -42.668343 -23.39439 -11.081903
        -42.341774 -25.63385 -12.275848 -41.56281 -27.679855 -13.166492
        -40.382965 -29.36755 -13.591597 -38.93652 -30.54055 -13.394741
        -37.435368 -31.081898 -12.455923 -36.14104 -30.940178 -10.717607
        -7.537313 -6.6708546 -1.4442186 -0.10018015 -0.44725227 0.34057903
        -0.06324434 -0.46780968 0.33564663 -0.02644062 -0.4766407 0.33995962
        0.006099701 -0.47529125 0.35156107 0.03204441 -0.4663086 0.36786747
        0.050679207 -0.45244026 0.3863752 0.062473297 -0.4360919 0.40507412
        0.068553925 -0.41910172 0.42260134 -9.401339 -0.93182045 3.2677505
        -9.727661 -0.9562275 3.349174 -10.064027 -0.9819329 3.4308634
        -10.410808 -1.0090897 3.5125682 -10.768428 -1.0378728 3.5940104
        -11.137369 -1.0684813 3.6748786 -11.518181 -1.1011423 3.7548234
        -11.911492 -1.1361134 3.833451 -12.318013 -1.1736873 3.9103148
        -12.738554 -1.2141957 3.984906 -13.174023 -1.2580142 4.0566435
        -13.625443 -1.3055674 4.1248617 -14.093955 -1.3573356 4.188792
        -14.580823 -1.413861 4.2475543 -15.087435 -1.4757559 4.300132
        -15.615307 -1.5437117 4.345359 -16.166077 -1.6185083 4.381899
        -16.741505 -1.701028 4.4082294 -17.343452 -1.7922678 4.4226227
        -17.973888 -1.8933578 4.4231334 -18.634867 -2.0055814 4.4075837
        -19.32851 -2.1304026 4.3735547 -20.05701 -2.2694957 4.318374
        -20.822615 -2.4247866 4.2391067 -21.627615 -2.598505 4.132534
        -22.474329 -2.793238 3.9951458 -23.365112 -3.012019 3.8230853
        -24.302303 -3.2584171 3.612114 -25.288185 -3.5366557 3.3575559
        -26.324884 -3.8517578 3.0542383 -27.414265 -4.2097235 2.696447
        -28.557747 -4.6177506 2.2778983 -29.75611 -5.084498 1.7917404
        -31.009256 -5.620409 1.2305727 -32.31593 -6.2380853 0.58644676
        -33.673313 -6.9526806 -0.1491952 -35.076447 -7.7822704 -0.9856876
        -36.51721 -8.748069 -1.9334351 -37.982548 -9.874239 -3.0042174
        -39.451813 -11.187016 -4.2111936 -40.89278 -12.712553 -5.5679827
        -42.25678 -14.472939 -7.085905 -43.473877 -16.479725 -8.7682085
        -44.45045 -18.724785 -10.60055 -45.07239 -21.168917 -12.537866
        -45.218067 -23.730598 -14.490194 -44.783504 -26.278671 -16.312193
        -43.71841 -28.635101 -17.803843 -42.064545 -30.592903 -18.729237
        -39.981316 -31.950134 -18.85481 -37.74236 -32.553284 -17.99941
        -35.695347 -32.3351 -16.078413 -34.19464 -31.331299 -13.122892
        -0.13038635 -0.4554863 0.2799673 -0.07968712 -0.48180008 0.27200317
        -0.030174255 -0.4929304 0.27841568 0.012421608 -0.49125195 0.2957511
        0.0451746 -0.48033237 0.31973696 0.06758976 -0.46378613 0.34646606
        0.080776215 -0.44468307 0.3729596 0.08658695 -0.4252205 0.39733815
        -9.435786 -0.8433034 3.2696562 -9.763772 -0.8645111 3.3502522
        -10.10196 -0.88686055 3.4310288 -10.450744 -0.9104861 3.5117335
        -10.810569 -0.93554115 3.5920842 -11.181948 -0.9622004 3.671767
        -11.565457 -0.9906633 3.7504284 -11.961761 -1.0211561 3.82767
        -12.371609 -1.0539362 3.9030402 -12.795851 -1.0892953 3.9760242
        -13.235447 -1.1275642 4.046032 -13.691475 -1.1691176 4.112386
        -14.165136 -1.2143797 4.174307 -14.657763 -1.2638305 4.230894
        -15.170824 -1.3180131 4.28111 -15.705923 -1.3775417 4.3237596
        -16.264801 -1.4431121 4.3574724 -16.849327 -1.5155128 4.38068
        -17.4615 -1.5956386 4.3916035 -18.10344 -1.6845071 4.388228
        -18.777367 -1.7832803 4.368294 -19.485617 -1.893288 4.3292804
        -20.230618 -2.016061 4.2683907 -21.014904 -2.1533709 4.1825337
        -21.841106 -2.3072813 4.0682964 -22.711962 -2.4802032 3.921924
        -23.63032 -2.6749878 3.7392492 -24.599127 -2.895017 3.5156362
        -25.621399 -3.14433 3.2458997 -26.700169 -3.4277825 2.9242072
        -27.838402 -3.7512414 2.5439935 -29.03887 -4.121836 2.0978594
        -30.30401 -4.54827 1.5774927 -31.635757 -5.041214 0.9735476
        -33.03531 -5.613775 0.27546483 -34.502766 -6.2820425 -0.5288522
        -36.03649 -7.0656514 -1.453563 -37.631863 -7.9882536 -2.515623
        -39.279037 -9.077665 -3.7355769 -40.95929 -10.36532 -5.1380167
        -42.63948 -11.884416 -6.750806 -44.264835 -13.665989 -8.601795
        -45.75109 -15.731939 -10.71125 -46.978794 -18.084368 -13.07852
        -47.794502 -20.69146 -15.662754 -48.0247 -23.471704 -18.360027
        -47.50815 -26.281878 -20.984257 -46.146217 -28.91629 -23.263132
        -43.960953 -31.125893 -24.861595 -41.138348 -32.660534 -25.438494
        -38.029423 -33.326374 -24.725357 -35.094563 -33.038258 -22.59898
        -32.804005 -31.843643 -19.114185 -31.533081 -29.905872 -14.479577
        -0.10057926 -0.48537445 0.1950779 -0.03511715 -0.4997635 0.20394897
        0.019701004 -0.49858952 0.22869396 0.06038189 -0.48653984 0.26258278
        0.086912155 -0.46820927 0.29971504 0.10133266 -0.44725704 0.3358879
        0.10649109 -0.42622185 0.3685882 -9.465576 -0.7526458 3.2716613
        -9.795001 -0.77048755 3.3515646 -10.134766 -0.7893001 3.431577
        -10.485281 -0.8091973 3.511443 -10.847014 -0.83030957 3.5908782
        -11.220499 -0.8527855 3.6695657 -11.60634 -0.8767944 3.747149
        -12.005229 -0.9025289 3.8232257 -12.41795 -0.93020785 3.8973393
        -12.845388 -0.96007985 3.9689693 -13.288551 -0.99242705 4.037519
        -13.748559 -1.0275694 4.102301 -14.22667 -1.0658695 4.162523
        -14.724278 -1.107738 4.217269 -15.24292 -1.1536412 4.265482
        -15.784279 -1.2041072 4.3059425 -16.350183 -1.2597352 4.337247
        -16.94261 -1.3212067 4.357791 -17.56367 -1.3892967 4.3657427
        -18.21562 -1.4648902 4.3590307 -18.900846 -1.5490013 4.3353205
        -19.621864 -1.6427956 4.2920003 -20.381332 -1.7476208 4.226159
        -21.182043 -1.8650446 4.134565 -22.02696 -1.9969038 4.013627
        -22.9192 -2.1453576 3.8593657 -23.8621 -2.3129754 3.6673255
        -24.859188 -2.502828 3.4324992 -25.914211 -2.7186131 3.1492202
        -27.0311 -2.9648132 2.8110304 -28.213932 -3.246901 2.410539
        -29.466879 -3.5716 1.9392607 -30.794128 -3.9472203 1.3874239
        -32.199806 -4.3840914 0.74371225 -33.687843 -4.8951035 -0.005135834
        -35.261673 -5.496347 -0.8749698 -36.923626 -6.2078476 -1.8851657
        -38.67351 -7.054268 -3.0599356 -40.505997 -8.065381 -4.429802
        -42.405994 -9.275958 -6.0327296 -44.34153 -10.724393 -7.913848
        -46.253822 -12.449157 -10.121946 -48.045784 -14.481918 -12.70027
        -49.57192 -16.836111 -15.669133 -50.635704 -19.490612 -18.998928
        -51.003227 -22.370152 -22.576035 -50.442245 -25.327938 -26.170773
        -48.78955 -28.140146 -29.424229 -46.034954 -30.524328 -31.87538
        -42.389816 -32.188175 -33.040764 -38.29727 -32.90072 -32.53364
        -34.35762 -32.5597 -30.177917 -31.185966 -31.22346 -26.061543
        -29.261562 -29.089697 -20.499058 -4.620021 -4.5357246 -2.0876465
        -0.04240036 -0.49152565 0.11966515 0.026733398 -0.4923563 0.15307331
        0.07638931 -0.4808731 0.19869709 0.10733318 -0.46249485 0.24807405
        0.12288094 -0.44140387 0.29543686 0.1271019 -0.4203472 0.33761334
        -9.490377 -0.66024685 3.273657 -9.821001 -0.67458564 3.3530014
        -10.162077 -0.6897118 3.4323955 -10.514033 -0.70571804 3.5115826
        -10.877355 -0.7227101 3.5902765 -11.25259 -0.7408086 3.6681576
        -11.640369 -0.76015127 3.7448666 -12.041409 -0.7808946 3.819998
        -12.456517 -0.80321664 3.8930917 -12.886616 -0.82731986 3.9636219
        -13.332744 -0.8534342 4.0309854 -13.796063 -0.88182056 4.094487
        -14.277878 -0.91277504 4.1533246 -14.779633 -0.94663376 4.2065682
        -15.302923 -0.9837784 4.2531443 -15.849499 -1.0246423 4.291812
        -16.421267 -1.0697185 4.321141 -17.020288 -1.119568 4.3394933
        -17.64878 -1.1748316 4.3449974 -18.309114 -1.2362424 4.335528
        -19.003817 -1.3046429 4.3086896 -19.735567 -1.3810056 4.2617903
        -20.50722 -1.4664588 4.191822 -21.321804 -1.5623204 4.09543
        -22.18257 -1.6701418 3.968868 -23.09299 -1.7917564 3.8079598
        -24.05683 -1.9293574 3.607994 -25.078163 -2.0855818 3.3636353
        -26.161402 -2.263626 3.068786 -27.311321 -2.4673944 2.7164214
        -28.533062 -2.7016904 2.2983985 -29.832138 -2.9724712 1.8052243
        -31.214457 -3.2871761 1.2257609 -32.686333 -3.6551576 0.5468119
        -34.25448 -4.088234 -0.24751014 -35.925827 -4.601371 -1.176755
        -37.706974 -5.213493 -2.2655585 -39.602737 -5.948329 -3.5455945
        -41.613205 -6.835154 -5.057857 -43.728348 -7.909057 -6.854726
        -45.91931 -9.210145 -9.000491 -48.125813 -10.780684 -11.568064
        -50.240547 -12.658888 -14.628545 -52.093834 -14.867801 -18.229855
        -53.44564 -17.398287 -22.361332 -53.997055 -20.187191 -26.906193
        -53.434853 -23.095772 -31.592272 -51.517265 -25.899239 -35.964993
        -48.188972 -28.302174 -39.415287 -43.682526 -29.989899 -41.285717
        -38.543118 -30.708914 -41.041344 -33.532696 -30.346004 -38.439003
        -29.434671 -28.966352 -33.60856 -26.846273 -26.788921 -26.998
        -26.054188 -24.11282 -19.2132 -0.053604126 -0.46313667 0.032463074
        0.031503677 -0.46808147 0.07465172 0.0909996 -0.45971584 0.13272953
        0.12667084 -0.4439249 0.19515705 0.143404 -0.42515516 0.25435877
        0.14667797 -0.4062481 0.30643272 -9.509913 -0.56647915 3.2755296
        -9.841482 -0.57720625 3.3544447 -10.183593 -0.5885278 3.4333649
        -10.536683 -0.6005139 3.512031 -10.901252 -0.6132446 3.5901554
        -11.277866 -0.62681144 3.667416 -11.667171 -0.6413188 3.743452
        -12.069901 -0.65688527 3.8178556 -12.486889 -0.6736462 3.8901632
        -12.919081 -0.6917553 3.9598453 -13.367541 -0.7113872 4.0262933
        -13.833467 -0.7327406 4.088806 -14.318196 -0.75604105 4.1465726
        -14.823216 -0.7815449 4.1986537 -15.35017 -0.80954343 4.2439604
        -15.90086 -0.84036815 4.2812357 -16.477253 -0.87439674 4.309029
        -17.081484 -0.9120598 4.325674 -17.71585 -0.95385003 4.3292665
        -18.38282 -1.0003325 4.3176413 -19.085032 -1.0521581 4.2883496
        -19.825302 -1.1100807 4.238637 -20.606642 -1.1749771 4.165416
        -21.432287 -1.2478765 4.065229 -22.305712 -1.3299901 3.9342127
        -23.230696 -1.4227619 3.7680187 -24.211369 -1.5279222 3.5617292
        -25.25226 -1.6475619 3.309735 -26.358358 -1.7842289 3.005578
        -27.535168 -1.941053 2.641757 -28.788754 -2.1219106 2.2094913
        -30.125832 -2.3316414 1.6984227 -31.553839 -2.5763378 1.0962265
        -33.081093 -2.8637292 0.3880533 -34.716873 -3.203675 -0.44432825
        -36.471416 -3.608803 -1.423816 -38.355446 -4.095277 -2.5798836
        -40.378757 -4.683652 -3.9511755 -42.547104 -5.3997145 -5.588663
        -44.856182 -6.2749987 -7.5587454 -47.28158 -7.3464847 -9.944788
        -49.76375 -8.654587 -12.844471 -52.188404 -10.238154 -16.358704
        -54.3655 -12.12483 -20.56668 -56.015232 -14.315506 -25.482492
        -56.775444 -16.763071 -30.993109 -56.250107 -19.349823 -36.78976
        -54.112488 -21.8737 -42.322742 -50.253277 -24.059107 -46.82669
        -44.919746 -25.604727 -49.453888 -38.75956 -26.263582 -49.50327
        -32.70347 -25.924307 -46.655426 -27.71151 -24.650856 -41.0875
        -24.501986 -22.657436 -33.39706 -23.395054 -20.233236 -24.380714
        -0.07048988 -0.41215324 -0.046865463 0.031370163 -0.42347336 0.002281189
        0.10122299 -0.4212494 0.07159996 0.14205742 -0.41123152 0.14613152
        0.1603508 -0.397717 0.21641445 0.16305923 -0.38346338 0.27772188
        -9.523974 -0.47169834 3.2771769 -9.85622 -0.47873312 3.3557916
        -10.199074 -0.486162 3.4343789 -10.552979 -0.49403188 3.5126786
        -10.918447 -0.5023963 3.590402 -11.29605 -0.51131654 3.6672258
        -11.686451 -0.5208624 3.7427874 -12.090396 -0.5311135 3.8166776
        -12.508734 -0.5421605 3.88843 -12.942429 -0.5541066 3.9575129
        -13.392566 -0.56706923 4.0233135 -13.860365 -0.58118176 4.085126
        -14.347191 -0.59659624 4.1421337 -14.854559 -0.61348516 4.1933894
        -15.384149 -0.63204527 4.2377954 -15.937799 -0.6525003 4.274081
        -16.517523 -0.6751057 4.300781 -17.12551 -0.7001533 4.3162084
        -17.76411 -0.72797716 4.318435 -18.435871 -0.7589618 4.3052664
        -19.143509 -0.7935505 4.2742157 -19.88994 -0.8322578 4.222482
        -20.6783 -0.87568384 4.1469197 -21.51197 -0.92453456 4.0439963
        -22.394602 -0.97964364 3.9097562 -23.330196 -1.0420073 3.7397304
        -24.323162 -1.1128228 3.5288432 -25.37838 -1.1935426 3.2712817
        -26.501278 -1.2859426 2.9603179 -27.69792 -1.3922132 2.588089
        -28.975101 -1.5150785 2.1453276 -30.340466 -1.6579571 1.621012
        -31.802677 -1.825176 1.0019007 -33.371643 -2.022256 0.27184838
        -35.058754 -2.256291 -0.5892248 -36.876945 -2.5364323 -1.6068952
        -38.840405 -2.8744926 -2.8145514 -40.963203 -3.2856476 -4.256547
        -43.256077 -3.789147 -5.9921484 -45.720078 -4.408869 -8.099587
        -48.335426 -5.173304 -10.678673 -51.0446 -6.114358 -13.848897
        -53.729324 -7.263891 -17.738186 -56.184593 -8.646717 -22.45539
        -58.098694 -10.268702 -28.040127 -59.056152 -12.099882 -34.38787
        -58.587936 -14.05538 -41.16264 -56.289185 -15.98217 -47.73319
        -51.99711 -17.664968 -53.19272 -45.96674 -18.863274 -56.51587
        -38.93489 -19.377178 -56.843323 -31.984333 -19.115824 -53.78199
        -26.234772 -18.130482 -47.553867 -22.512094 -16.594076 -38.898952
        -21.16265 -14.738678 -28.792692 -4.638731 -2.914092 -3.8342972
        0.023735046 -0.36024237 -0.053373337 0.10395622 -0.36681414 0.02350235
        0.15039825 -0.3655181 0.10703754 0.17097855 -0.36003208 0.18588161
        0.17399788 -0.3528068 0.25445414 -9.532406 -0.376251 3.2785215
        -9.865058 -0.37954026 3.3569613 -10.208355 -0.3830185 3.4353542
        -10.562748 -0.38670877 3.5134401 -10.928751 -0.39063758 3.590929
        -11.306948 -0.39483517 3.6674967 -11.698003 -0.39933625 3.7427802
        -12.102674 -0.40418023 3.8163686 -12.52182 -0.40941224 3.8877943
        -12.956413 -0.41508365 3.9565237 -13.407553 -0.4212529 4.0219426
        -13.876472 -0.42798668 4.0833416 -14.364552 -0.43536094 4.1399007
        -14.873326 -0.44346213 4.1906676 -15.404492 -0.45238885 4.2345386
        -15.959915 -0.46225363 4.2702365 -16.541637 -0.47318482 4.296285
        -17.151869 -0.4853296 4.310987 -17.793013 -0.49885684 4.3123994
        -18.467644 -0.5139609 4.2983074 -19.17854 -0.5308666 4.266203
        -19.928677 -0.54983526 4.2132573 -20.721258 -0.5711725 4.1362877
        -21.559757 -0.59523785 4.031718 -22.447935 -0.6224585 3.8955355
        -23.389936 -0.6533438 3.7231946 -24.390339 -0.688509 3.5095267
        -25.454233 -0.72870064 3.2485929 -26.587334 -0.7748339 2.933496
        -27.79605 -0.82803965 2.5561514 -29.087635 -0.88972706 2.106988
        -30.470327 -0.9616687 1.5745728 -31.95358 -1.0461129 0.94508564
        -33.548332 -1.1459346 0.2015605 -35.267323 -1.2648388 -0.67725676
        -37.12528 -1.4076188 -1.7186718 -39.138687 -1.5804878 -2.9585938
        -41.324497 -1.7914582 -4.445126 -43.696907 -2.0507526 -6.242997
        -46.26071 -2.3711271 -8.438349 -48.999687 -2.7679372 -11.142101
        -51.85831 -3.2585804 -14.488757 -54.716534 -3.860745 -18.625175
        -57.360413 -4.58881 -23.681608 -59.457825 -5.4475374 -29.717075
        -60.5577 -6.422907 -36.635536 -60.140778 -7.4713635 -44.08497
        -57.746742 -8.511666 -51.379406 -53.172897 -9.426824 -57.51291
        -46.676613 -10.083793 -61.33252 -39.055363 -10.370854 -61.863434
        -31.498459 -10.237286 -58.657875 -25.237946 -9.70989 -51.97
        -21.174816 -8.883203 -42.64305 -19.672 -7.885459 -31.781384
        -13.141962 -4.444627 -13.026562 0.007118225 -0.28499913 -0.08245659
        0.09684181 -0.3015213 -0.003911972 0.14922905 -0.31071496 0.08347225
        0.17308998 -0.3150866 0.16669273 0.17763329 -0.31651497 0.23934984
        -9.535118 -0.28047925 3.2795143 -9.867899 -0.27999705 3.3579037
        -10.211337 -0.27949625 3.4362404 -10.565884 -0.27897605 3.5142632
        -10.932056 -0.27843538 3.591682 -11.31044 -0.2778733 3.6681728
        -11.701703 -0.27728888 3.743372 -12.106605 -0.27668098 3.8168683
        -12.526006 -0.27604857 3.8881938 -12.960885 -0.27539057 3.9568145
        -13.412344 -0.27470583 4.0221148 -13.881619 -0.2739933 4.083385
        -14.370097 -0.27325195 4.1398034 -14.879317 -0.27248067 4.1904163
        -15.410985 -0.27167854 4.234118 -15.966972 -0.2708447 4.269629
        -16.549328 -0.26997843 4.2954693 -17.160276 -0.2690793 4.309939
        -17.802229 -0.268147 4.311088 -18.477777 -0.2671818 4.2966976
        -19.189709 -0.26618406 4.2642517 -19.941023 -0.2651551 4.210911
        -20.73495 -0.26409683 4.1334825 -21.57499 -0.26301113 4.028374
        -22.464937 -0.26190293 3.8915555 -23.408981 -0.26077637 3.7184567
        -24.411757 -0.25963745 3.5038786 -25.478428 -0.25849384 3.2418404
        -26.614792 -0.25735357 2.925391 -27.827383 -0.25622612 2.5463743
        -29.123602 -0.25512078 2.0951219 -30.511885 -0.25404537 1.5600644
        -32.00194 -0.2530046 0.92719537 -33.60506 -0.25199425 0.17928231
        -35.33445 -0.2509979 -0.7053179 -37.20544 -0.24997707 -1.7544695
        -39.2353 -0.24885654 -3.0049348 -41.441998 -0.24751058 -4.506053
        -43.840916 -0.24573335 -6.324397 -46.43824 -0.2432088 -8.548788
        -49.219048 -0.23947456 -11.293951 -52.12864 -0.23390166 -14.699556
        -55.04661 -0.22567639 -18.919117 -57.756187 -0.21399175 -24.090471
        -59.91851 -0.19836998 -30.279804 -61.07045 -0.17925288 -37.394676
        -60.67534 -0.15857327 -45.078358 -58.253258 -0.1398032 -52.626568
        -53.586815 -0.12711698 -58.999134 -46.932983 -0.12409297 -62.997948
        -39.109123 -0.13314247 -63.606686 -31.341564 -0.156075 -60.356934
        -24.90276 -0.18807538 -53.513042 -20.720186 -0.22246908 -43.954178
        -19.162876 -0.25438637 -32.830082 -15.704384 -0.25762463 -16.568815
        -0.017961502 -0.20826238 -0.07910538 0.079366684 -0.23361865 -0.005853653
        0.13754845 -0.2530732 0.079073906 0.16558266 -0.26752326 0.16150379
        0.17299461 -0.27799222 0.23425055 -9.532083 -0.18472344 3.280139
        -9.864714 -0.18047091 3.3586018 -10.207986 -0.17599244 3.4370186
        -10.562354 -0.17126307 3.5151286 -10.928328 -0.16625452 3.5926418
        -11.306493 -0.16093451 3.669234 -11.697514 -0.15526643 3.7445424
        -12.102147 -0.14920875 3.818156 -12.521251 -0.14271423 3.8896074
        -12.955799 -0.1357294 3.9583623 -13.406888 -0.12819363 4.023807
        -13.875751 -0.120038 4.0852323 -14.363768 -0.11118457 4.1418176
        -14.872471 -0.10154484 4.1926103 -15.403559 -0.09101842 4.236508
        -15.958894 -0.07949123 4.272232 -16.540516 -0.06683336 4.2983074
        -17.150639 -0.05289691 4.3130364 -17.791655 -0.037512735 4.3144755
        -18.466146 -0.020487007 4.3004117 -19.17688 -0.0015960652 4.2683372
        -19.92683 0.019418737 4.215422 -20.7192 0.042858932 4.1384864
        -21.557457 0.069079876 4.033954 -22.445358 0.098497935 3.897815
        -23.387035 0.13161412 3.7255275 -24.387064 0.16903014 3.5119252
        -25.450525 0.21147698 3.2510748 -26.583117 0.25985166 2.9360876
        -27.791237 0.31526425 2.5588899 -29.082127 0.37910315 2.1099265
        -30.463997 0.453121 1.5777847 -31.946278 0.5395522 0.9486753
        -33.53987 0.6412728 0.20567745 -35.257492 0.7620102 -0.6724067
        -37.113827 0.9066224 -1.7127881 -39.125298 1.0814495 -2.951266
        -41.308815 1.2947286 -4.435763 -43.67852 1.5570498 -6.230783
        -46.23919 1.8817396 -8.422134 -48.97461 2.2849941 -11.120323
        -51.82933 2.785351 -14.459299 -54.683556 3.401975 -18.585312
        -57.32384 4.150698 -23.627998 -59.41892 5.0371275 -29.646023
        -60.519077 6.0463996 -36.54366 -60.10679 7.13142 -43.97052
        -57.723263 8.204645 -51.24375 -53.166172 9.141601 -57.362194
        -46.69074 9.802782 -61.177532 -39.089695 10.071945 -61.717793
        -31.547855 9.896456 -58.534218 -25.295336 9.310884 -51.876324
        -21.232048 8.421452 -42.58089 -19.72252 7.3654137 -31.746813
        -13.192291 3.9497068 -12.995008 -0.04858017 -0.14164019 -0.04368782
        0.053239822 -0.17244792 0.01805687 0.11631775 -0.19978976 0.09445858
        0.14893913 -0.22271562 0.1709261 0.16027641 -0.24117577 0.23969698
        -9.523331 -0.08932384 3.2804103 -9.855534 -0.08132929 3.3590713
        -10.198339 -0.07290395 3.4377058 -10.552194 -0.06399924 3.5160537
        -10.917603 -0.054559678 3.5938256 -11.295144 -0.044522166 3.6706986
        -11.685476 -0.033814922 3.7463105 -12.089346 -0.022356354 3.820251
        -12.507602 -0.010053748 3.892054 -12.941204 0.003198132 3.9611878
        -13.391241 0.01751869 4.0270405 -13.858928 0.033043534 4.0889053
        -14.345629 0.049926385 4.145965 -14.852859 0.06834179 4.197273
        -15.382291 0.088487945 4.241731 -15.935768 0.11059017 4.2780695
        -16.515297 0.13490471 4.304822 -17.123062 0.16172405 4.3203034
        -17.761415 0.19138218 4.322585 -18.432892 0.22426255 4.3094716
        -19.140211 0.26080653 4.278479 -19.88628 0.30152518 4.226807
        -20.674223 0.34701395 4.1513114 -21.507414 0.39797273 4.048463
        -22.389494 0.45522395 3.9143095 -23.324455 0.5197524 3.7443867
        -24.31669 0.59274024 3.5336282 -25.371054 0.6756211 3.27623
        -26.49296 0.77014804 2.9654794 -27.688442 0.87848556 2.5935345
        -28.964262 1.0033289 2.1511579 -30.328022 1.1480668 1.6273689
        -31.788353 1.3169994 1.0089852 -33.3551 1.5156271 0.27994102
        -35.039574 1.7510393 -0.57972616 -36.854652 2.0324113 -1.5954365
        -38.814426 2.3716278 -2.8003473 -40.93289 2.784008 -4.2385073
        -43.220726 3.2890558 -5.968754 -45.678917 3.9110527 -8.068733
        -48.287758 4.6791034 -10.637505 -50.98994 5.625951 -13.793633
        -53.66768 6.784543 -17.663979 -56.116924 8.180752 -22.35643
        -58.02759 9.821025 -27.910126 -58.98661 11.674714 -34.221336
        -58.527817 13.654263 -40.956966 -56.24888 15.602077 -47.491547
        -51.98722 17.297554 -52.926243 -45.994057 18.495646 -56.243637
        -38.998592 18.993475 -56.588844 -32.075676 18.699959 -53.566837
        -26.340149 17.671274 -47.391468 -22.616844 16.087986 -38.791794
        -21.255222 14.188924 -28.734032 -4.7537193 2.4693918 -3.7394772
        -0.080099106 -0.094223976 0.017152786 0.022157669 -0.12580585 0.06353569
        0.088308334 -0.1571374 0.12696552 0.12516975 -0.18550014 0.19336796
        0.14090538 -0.2096982 0.25475883 -9.508954 0.0053777457 3.280376
        -9.840456 0.017058834 3.359361 -10.182496 0.029370472 3.4383519
        -10.535509 0.042384464 3.5170898 -10.899993 0.05618269 3.5952868
        -11.276515 0.07085843 3.6726215 -11.665718 0.08651781 3.748732
        -12.068336 0.10328148 3.8232112 -12.4852 0.12128662 3.8955948
        -12.917257 0.14068876 3.9653535 -13.365566 0.1616646 4.031879
        -13.831326 0.18441448 4.094469 -14.315871 0.20916568 4.152313
        -14.820685 0.23617613 4.204472 -15.347408 0.2657385 4.249858
        -15.89784 0.29818526 4.287212 -16.473946 0.33389446 4.3150845
        -17.07785 0.37329677 4.3318095 -17.711851 0.41688418 4.335483
        -18.378405 0.46521986 4.3239403 -19.080147 0.518952 4.294735
        -19.819881 0.5788296 4.2451134 -20.60061 0.6457232 4.1719913
        -21.425556 0.72065425 4.0719132 -22.298178 0.80482024 3.9410233
        -23.222239 0.8996511 3.7749798 -24.201841 1.0068579 3.568875
        -25.241497 1.1285077 3.3171153 -26.346159 1.2671201 3.0132637