# vtk DataFile Version 3.0
SM polar seed points transformed to GSW coordinates
ASCII
DATASET POLYDATA
POINTS      288 float
       0.605891       0.000000       1.372187
       0.580484       0.194114       1.369437
       0.505994       0.375000       1.361376
       0.387496       0.530330       1.348554
       0.233068       0.649519       1.331843
       0.053232       0.724444       1.312382
      -0.139756       0.750000       1.291499
      -0.332743       0.724444       1.270615
      -0.512579       0.649519       1.251155
      -0.667008       0.530330       1.234444
      -0.785505       0.375000       1.221621
      -0.859995       0.194114       1.213560
      -0.885403      -0.000000       1.210811
      -0.859995      -0.194114       1.213560
      -0.785505      -0.375000       1.221621
      -0.667008      -0.530330       1.234444
      -0.512579      -0.649519       1.251155
      -0.332743      -0.724444       1.270615
      -0.139756      -0.750000       1.291499
       0.053232      -0.724444       1.312382
       0.233068      -0.649519       1.331843
       0.387496      -0.530330       1.348554
       0.505993      -0.375000       1.361376
       0.580484      -0.194114       1.369437
       0.483992       0.000000       1.419772
       0.462517       0.164072       1.417448
       0.399555       0.316964       1.410635
       0.299396       0.448254       1.399796
       0.168868       0.548997       1.385671
       0.016864       0.612327       1.369223
      -0.146256       0.633927       1.351571
      -0.309376       0.612327       1.333920
      -0.461380       0.548997       1.317471
      -0.591909       0.448254       1.303346
      -0.692067       0.316964       1.292508
      -0.755029       0.164073       1.285695
      -0.776504      -0.000000       1.283371
      -0.755029      -0.164073       1.285695
      -0.692067      -0.316964       1.292508
      -0.591909      -0.448254       1.303346
      -0.461380      -0.548997       1.317471
      -0.309376      -0.612327       1.333920
      -0.146256      -0.633927       1.351571
       0.016864      -0.612327       1.369223
       0.168868      -0.548997       1.385671
       0.299396      -0.448254       1.399796
       0.399555      -0.316964       1.410635
       0.462517      -0.164073       1.417448
       0.358409       0.000000       1.456552
       0.341029       0.132782       1.454671
       0.290075       0.256515       1.449157
       0.209018       0.362767       1.440386
       0.103383       0.444297       1.428955
      -0.019632       0.495549       1.415643
      -0.151644       0.513030       1.401358
      -0.283655       0.495549       1.387073
      -0.406670       0.444297       1.373761
      -0.512305       0.362767       1.362330
      -0.593362       0.256515       1.353559
      -0.644317       0.132782       1.348045
      -0.661696      -0.000000       1.346164
      -0.644317      -0.132782       1.348045
      -0.593362      -0.256515       1.353559
      -0.512305      -0.362767       1.362330
      -0.406670      -0.444297       1.373761
      -0.283655      -0.495549       1.387073
      -0.151644      -0.513030       1.401358
      -0.019632      -0.495549       1.415643
       0.103383      -0.444297       1.428955
       0.209018      -0.362767       1.440386
       0.290075      -0.256515       1.449157
       0.341029      -0.132782       1.454671
       0.230098       0.000000       1.482247
       0.216946       0.100481       1.480823
       0.178387       0.194114       1.476651
       0.117049       0.274519       1.470013
       0.037110       0.336216       1.461363
      -0.055979       0.375000       1.451290
      -0.155877       0.388229       1.440479
      -0.255775       0.375000       1.429669
      -0.348865       0.336216       1.419596
      -0.428803       0.274519       1.410946
      -0.490142       0.194114       1.404308
      -0.528701       0.100481       1.400135
      -0.541852      -0.000000       1.398712
      -0.528701      -0.100481       1.400135
      -0.490142      -0.194114       1.404308
      -0.428803      -0.274519       1.410946
      -0.348865      -0.336216       1.419596
      -0.255775      -0.375000       1.429669
      -0.155877      -0.388229       1.440479
      -0.055979      -0.375000       1.451290
       0.037110      -0.336216       1.461363
       0.117049      -0.274519       1.470013
       0.178387      -0.194114       1.476651
       0.216946      -0.100481       1.480823
       0.100036       0.000000       1.496660
       0.091212       0.067415       1.495706
       0.065342       0.130236       1.492906
       0.024189       0.184182       1.488453
      -0.029444       0.225576       1.482649
      -0.091900       0.251597       1.475891
      -0.158924       0.260472       1.468638
      -0.225948       0.251597       1.461385
      -0.288405       0.225576       1.454627
      -0.342037       0.184182       1.448823
      -0.383191       0.130236       1.444370
      -0.409061       0.067415       1.441570
      -0.417885      -0.000000       1.440615
      -0.409061      -0.067415       1.441570
      -0.383191      -0.130236       1.444370
      -0.342037      -0.184182       1.448823
      -0.288404      -0.225576       1.454627
      -0.225948      -0.251597       1.461385
      -0.158924      -0.260472       1.468638
      -0.091900      -0.251597       1.475891
      -0.029444      -0.225576       1.482649
       0.024188      -0.184182       1.488453
       0.065342      -0.130236       1.492906
       0.091212      -0.067415       1.495706
      -0.030787       0.000000       1.499684
      -0.035216       0.033836       1.499205
      -0.048200       0.065367       1.497800
      -0.068856       0.092443       1.495564
      -0.095774       0.113219       1.492652
      -0.127122       0.126279       1.489259
      -0.160762       0.130734       1.485619
      -0.194402       0.126279       1.481979
      -0.225749       0.113219       1.478587
      -0.252668       0.092443       1.475674
      -0.273323       0.065367       1.473439
      -0.286308       0.033836       1.472034
      -0.290737      -0.000000       1.471554
      -0.286308      -0.033836       1.472034
      -0.273323      -0.065367       1.473439
      -0.252668      -0.092443       1.475674
      -0.225749      -0.113219       1.478587
      -0.194402      -0.126279       1.481979
      -0.160762      -0.130734       1.485619
      -0.127122      -0.126279       1.489259
      -0.095774      -0.113219       1.492652
      -0.068856      -0.092443       1.495564
      -0.048200      -0.065367       1.497800
      -0.035216      -0.033836       1.499205
       0.885403       0.000000      -1.210811
       0.859995       0.194114      -1.213560
       0.785505       0.375000      -1.221621
       0.667008       0.530330      -1.234444
       0.512579       0.649519      -1.251155
       0.332743       0.724444      -1.270615
       0.139756       0.750000      -1.291499
      -0.053232       0.724444      -1.312382
      -0.233068       0.649519      -1.331843
      -0.387496       0.530330      -1.348554
      -0.505994       0.375000      -1.361376
      -0.580484       0.194114      -1.369437
      -0.605891      -0.000000      -1.372187
      -0.580484      -0.194114      -1.369437
      -0.505994      -0.375000      -1.361376
      -0.387496      -0.530330      -1.348554
      -0.233068      -0.649519      -1.331843
      -0.053232      -0.724444      -1.312382
       0.139756      -0.750000      -1.291499
       0.332743      -0.724444      -1.270615
       0.512579      -0.649519      -1.251155
       0.667008      -0.530330      -1.234444
       0.785505      -0.375000      -1.221621
       0.859995      -0.194114      -1.213560
       0.776504       0.000000      -1.283371
       0.755029       0.164072      -1.285695
       0.692067       0.316964      -1.292508
       0.591909       0.448254      -1.303346
       0.461380       0.548997      -1.317471
       0.309376       0.612327      -1.333920
       0.146256       0.633927      -1.351571
      -0.016864       0.612327      -1.369223
      -0.168868       0.548997      -1.385671
      -0.299396       0.448254      -1.399796
      -0.399555       0.316964      -1.410635
      -0.462517       0.164073      -1.417448
      -0.483992      -0.000000      -1.419772
      -0.462517      -0.164073      -1.417448
      -0.399555      -0.316964      -1.410635
      -0.299397      -0.448254      -1.399796
      -0.168868      -0.548997      -1.385671
      -0.016864      -0.612327      -1.369223
       0.146256      -0.633927      -1.351571
       0.309376      -0.612327      -1.333920
       0.461380      -0.548997      -1.317471
       0.591909      -0.448254      -1.303346
       0.692067      -0.316964      -1.292508
       0.755029      -0.164073      -1.285695
       0.661696       0.000000      -1.346164
       0.644317       0.132782      -1.348045
       0.593362       0.256515      -1.353559
       0.512305       0.362767      -1.362330
       0.406670       0.444297      -1.373761
       0.283655       0.495549      -1.387073
       0.151644       0.513030      -1.401358
       0.019632       0.495549      -1.415643
      -0.103383       0.444297      -1.428955
      -0.209018       0.362767      -1.440386
      -0.290075       0.256515      -1.449157
      -0.341029       0.132782      -1.454671
      -0.358409      -0.000000      -1.456552
      -0.341029      -0.132782      -1.454671
      -0.290075      -0.256515      -1.449157
      -0.209018      -0.362767      -1.440386
      -0.103382      -0.444297      -1.428955
       0.019632      -0.495549      -1.415643
       0.151644      -0.513030      -1.401358
       0.283655      -0.495549      -1.387073
       0.406670      -0.444297      -1.373761
       0.512305      -0.362767      -1.362330
       0.593362      -0.256515      -1.353559
       0.644317      -0.132782      -1.348045
       0.541852       0.000000      -1.398712
       0.528701       0.100481      -1.400135
       0.490142       0.194114      -1.404308
       0.428803       0.274519      -1.410946
       0.348865       0.336216      -1.419596
       0.255775       0.375000      -1.429669
       0.155877       0.388229      -1.440479
       0.055979       0.375000      -1.451290
      -0.037111       0.336216      -1.461363
      -0.117049       0.274519      -1.470013
      -0.178387       0.194114      -1.476651
      -0.216946       0.100481      -1.480823
      -0.230098      -0.000000      -1.482247
      -0.216946      -0.100481      -1.480823
      -0.178387      -0.194114      -1.476651
      -0.117049      -0.274519      -1.470013
      -0.037110      -0.336216      -1.461363
       0.055979      -0.375000      -1.451290
       0.155877      -0.388229      -1.440479
       0.255775      -0.375000      -1.429669
       0.348865      -0.336216      -1.419596
       0.428803      -0.274519      -1.410946
       0.490142      -0.194114      -1.404308
       0.528701      -0.100481      -1.400135
       0.417885       0.000000      -1.440615
       0.409061       0.067415      -1.441570
       0.383191       0.130236      -1.444370
       0.342037       0.184182      -1.448823
       0.288404       0.225576      -1.454627
       0.225948       0.251597      -1.461385
       0.158924       0.260472      -1.468638
       0.091900       0.251597      -1.475891
       0.029444       0.225576      -1.482649
      -0.024189       0.184182      -1.488453
      -0.065342       0.130236      -1.492906
      -0.091212       0.067415      -1.495706
      -0.100036      -0.000000      -1.496660
      -0.091212      -0.067415      -1.495706
      -0.065342      -0.130236      -1.492906
      -0.024189      -0.184182      -1.488453
       0.029444      -0.225576      -1.482649
       0.091900      -0.251597      -1.475891
       0.158924      -0.260472      -1.468638
       0.225948      -0.251597      -1.461385
       0.288404      -0.225576      -1.454627
       0.342037      -0.184182      -1.448823
       0.383191      -0.130236      -1.444370
       0.409061      -0.067415      -1.441570
       0.290737       0.000000      -1.471554
       0.286308       0.033836      -1.472034
       0.273323       0.065367      -1.473439
       0.252668       0.092443      -1.475674
       0.225749       0.113219      -1.478587
       0.194402       0.126279      -1.481979
       0.160762       0.130734      -1.485619
       0.127122       0.126279      -1.489259
       0.095774       0.113219      -1.492652
       0.068856       0.092443      -1.495564
       0.048200       0.065367      -1.497800
       0.035216       0.033836      -1.499205
       0.030787      -0.000000      -1.499684
       0.035216      -0.033836      -1.499205
       0.048200      -0.065367      -1.497800
       0.068856      -0.092443      -1.495564
       0.095774      -0.113219      -1.492652
       0.127122      -0.126279      -1.489259
       0.160762      -0.130734      -1.485619
       0.194402      -0.126279      -1.481979
       0.225749      -0.113219      -1.478587
       0.252668      -0.092443      -1.475674
       0.273323      -0.065367      -1.473439
       0.286308      -0.033836      -1.472034
VERTICES      288     576
 1        0
 1        1
 1        2
 1        3
 1        4
 1        5
 1        6
 1        7
 1        8
 1        9
 1       10
 1       11
 1       12
 1       13
 1       14
 1       15
 1       16
 1       17
 1       18
 1       19
 1       20
 1       21
 1       22
 1       23
 1       24
 1       25
 1       26
 1       27
 1       28
 1       29
 1       30
 1       31
 1       32
 1       33
 1       34
 1       35
 1       36
 1       37
 1       38
 1       39
 1       40
 1       41
 1       42
 1       43
 1       44
 1       45
 1       46
 1       47
 1       48
 1       49
 1       50
 1       51
 1       52
 1       53
 1       54
 1       55
 1       56
 1       57
 1       58
 1       59
 1       60
 1       61
 1       62
 1       63
 1       64
 1       65
 1       66
 1       67
 1       68
 1       69
 1       70
 1       71
 1       72
 1       73
 1       74
 1       75
 1       76
 1       77
 1       78
 1       79
 1       80
 1       81
 1       82
 1       83
 1       84
 1       85
 1       86
 1       87
 1       88
 1       89
 1       90
 1       91
 1       92
 1       93
 1       94
 1       95
 1       96
 1       97
 1       98
 1       99
 1      100
 1      101
 1      102
 1      103
 1      104
 1      105
 1      106
 1      107
 1      108
 1      109
 1      110
 1      111
 1      112
 1      113
 1      114
 1      115
 1      116
 1      117
 1      118
 1      119
 1      120
 1      121
 1      122
 1      123
 1      124
 1      125
 1      126
 1      127
 1      128
 1      129
 1      130
 1      131
 1      132
 1      133
 1      134
 1      135
 1      136
 1      137
 1      138
 1      139
 1      140
 1      141
 1      142
 1      143
 1      144
 1      145
 1      146
 1      147
 1      148
 1      149
 1      150
 1      151
 1      152
 1      153
 1      154
 1      155
 1      156
 1      157
 1      158
 1      159
 1      160
 1      161
 1      162
 1      163
 1      164
 1      165
 1      166
 1      167
 1      168
 1      169
 1      170
 1      171
 1      172
 1      173
 1      174
 1      175
 1      176
 1      177
 1      178
 1      179
 1      180
 1      181
 1      182
 1      183
 1      184
 1      185
 1      186
 1      187
 1      188
 1      189
 1      190
 1      191
 1      192
 1      193
 1      194
 1      195
 1      196
 1      197
 1      198
 1      199
 1      200
 1      201
 1      202
 1      203
 1      204
 1      205
 1      206
 1      207
 1      208
 1      209
 1      210
 1      211
 1      212
 1      213
 1      214
 1      215
 1      216
 1      217
 1      218
 1      219
 1      220
 1      221
 1      222
 1      223
 1      224
 1      225
 1      226
 1      227
 1      228
 1      229
 1      230
 1      231
 1      232
 1      233
 1      234
 1      235
 1      236
 1      237
 1      238
 1      239
 1      240
 1      241
 1      242
 1      243
 1      244
 1      245
 1      246
 1      247
 1      248
 1      249
 1      250
 1      251
 1      252
 1      253
 1      254
 1      255
 1      256
 1      257
 1      258
 1      259
 1      260
 1      261
 1      262
 1      263
 1      264
 1      265
 1      266
 1      267
 1      268
 1      269
 1      270
 1      271
 1      272
 1      273
 1      274
 1      275
 1      276
 1      277
 1      278
 1      279
 1      280
 1      281
 1      282
 1      283
 1      284
 1      285
 1      286
 1      287
POINT_DATA      288
SCALARS hemisphere int 1
LOOKUP_TABLE default
 1
 1
 1
 1
 1
 1
 1
 1
 1
 1
 1
 1
 1
 1
 1
 1
 1
 1
 1
 1
 1
 1
 1
 1
 1
 1
 1
 1
 1
 1
 1
 1
 1
 1
 1
 1
 1
 1
 1
 1
 1
 1
 1
 1
 1
 1
 1
 1
 1
 1
 1
 1
 1
 1
 1
 1
 1
 1
 1
 1
 1
 1
 1
 1
 1
 1
 1
 1
 1
 1
 1
 1
 1
 1
 1
 1
 1
 1
 1
 1
 1
 1
 1
 1
 1
 1
 1
 1
 1
 1
 1
 1
 1
 1
 1
 1
 1
 1
 1
 1
 1
 1
 1
 1
 1
 1
 1
 1
 1
 1
 1
 1
 1
 1
 1
 1
 1
 1
 1
 1
 1
 1
 1
 1
 1
 1
 1
 1
 1
 1
 1
 1
 1
 1
 1
 1
 1
 1
 1
 1
 1
 1
 1
 1
-1
-1
-1
-1
-1
-1
-1
-1
-1
-1
-1
-1
-1
-1
-1
-1
-1
-1
-1
-1
-1
-1
-1
-1
-1
-1
-1
-1
-1
-1
-1
-1
-1
-1
-1
-1
-1
-1
-1
-1
-1
-1
-1
-1
-1
-1
-1
-1
-1
-1
-1
-1
-1
-1
-1
-1
-1
-1
-1
-1
-1
-1
-1
-1
-1
-1
-1
-1
-1
-1
-1
-1
-1
-1
-1
-1
-1
-1
-1
-1
-1
-1
-1
-1
-1
-1
-1
-1
-1
-1
-1
-1
-1
-1
-1
-1
-1
-1
-1
-1
-1
-1
-1
-1
-1
-1
-1
-1
-1
-1
-1
-1
-1
-1
-1
-1
-1
-1
-1
-1
-1
-1
-1
-1
-1
-1
-1
-1
-1
-1
-1
-1
-1
-1
-1
-1
-1
-1
-1
-1
-1
-1
-1
-1
