# vtk DataFile Version 3.0
T01 + IGRF magnetic field in GSW coordinates
ASCII
DATASET STRUCTURED_GRID
DIMENSIONS     61    21    21
POINTS    26901 float
     -50.000000     -10.000000     -10.000000
     -49.000000     -10.000000     -10.000000
     -48.000000     -10.000000     -10.000000
     -47.000000     -10.000000     -10.000000
     -46.000000     -10.000000     -10.000000
     -45.000000     -10.000000     -10.000000
     -44.000000     -10.000000     -10.000000
     -43.000000     -10.000000     -10.000000
     -42.000000     -10.000000     -10.000000
     -41.000000     -10.000000     -10.000000
     -40.000000     -10.000000     -10.000000
     -39.000000     -10.000000     -10.000000
     -38.000000     -10.000000     -10.000000
     -37.000000     -10.000000     -10.000000
     -36.000000     -10.000000     -10.000000
     -35.000000     -10.000000     -10.000000
     -34.000000     -10.000000     -10.000000
     -33.000000     -10.000000     -10.000000
     -32.000000     -10.000000     -10.000000
     -31.000000     -10.000000     -10.000000
     -30.000000     -10.000000     -10.000000
     -29.000000     -10.000000     -10.000000
     -28.000000     -10.000000     -10.000000
     -27.000000     -10.000000     -10.000000
     -26.000000     -10.000000     -10.000000
     -25.000000     -10.000000     -10.000000
     -24.000000     -10.000000     -10.000000
     -23.000000     -10.000000     -10.000000
     -22.000000     -10.000000     -10.000000
     -21.000000     -10.000000     -10.000000
     -20.000000     -10.000000     -10.000000
     -19.000000     -10.000000     -10.000000
     -18.000000     -10.000000     -10.000000
     -17.000000     -10.000000     -10.000000
     -16.000000     -10.000000     -10.000000
     -15.000000     -10.000000     -10.000000
     -14.000000     -10.000000     -10.000000
     -13.000000     -10.000000     -10.000000
     -12.000000     -10.000000     -10.000000
     -11.000000     -10.000000     -10.000000
     -10.000000     -10.000000     -10.000000
      -9.000000     -10.000000     -10.000000
      -8.000000     -10.000000     -10.000000
      -7.000000     -10.000000     -10.000000
      -6.000000     -10.000000     -10.000000
      -5.000000     -10.000000     -10.000000
      -4.000000     -10.000000     -10.000000
      -3.000000     -10.000000     -10.000000
      -2.000000     -10.000000     -10.000000
      -1.000000     -10.000000     -10.000000
       0.000000     -10.000000     -10.000000
       1.000000     -10.000000     -10.000000
       2.000000     -10.000000     -10.000000
       3.000000     -10.000000     -10.000000
       4.000000     -10.000000     -10.000000
       5.000000     -10.000000     -10.000000
       6.000000     -10.000000     -10.000000
       7.000000     -10.000000     -10.000000
       8.000000     -10.000000     -10.000000
       9.000000     -10.000000     -10.000000
      10.000000     -10.000000     -10.000000
     -50.000000      -9.000000     -10.000000
     -49.000000      -9.000000     -10.000000
     -48.000000      -9.000000     -10.000000
     -47.000000      -9.000000     -10.000000
     -46.000000      -9.000000     -10.000000
     -45.000000      -9.000000     -10.000000
     -44.000000      -9.000000     -10.000000
     -43.000000      -9.000000     -10.000000
     -42.000000      -9.000000     -10.000000
     -41.000000      -9.000000     -10.000000
     -40.000000      -9.000000     -10.000000
     -39.000000      -9.000000     -10.000000
     -38.000000      -9.000000     -10.000000
     -37.000000      -9.000000     -10.000000
     -36.000000      -9.000000     -10.000000
     -35.000000      -9.000000     -10.000000
     -34.000000      -9.000000     -10.000000
     -33.000000      -9.000000     -10.000000
     -32.000000      -9.000000     -10.000000
     -31.000000      -9.000000     -10.000000
     -30.000000      -9.000000     -10.000000
     -29.000000      -9.000000     -10.000000
     -28.000000      -9.000000     -10.000000
     -27.000000      -9.000000     -10.000000
     -26.000000      -9.000000     -10.000000
     -25.000000      -9.000000     -10.000000
     -24.000000      -9.000000     -10.000000
     -23.000000      -9.000000     -10.000000
     -22.000000      -9.000000     -10.000000
     -21.000000      -9.000000     -10.000000
     -20.000000      -9.000000     -10.000000
     -19.000000      -9.000000     -10.000000
     -18.000000      -9.000000     -10.000000
     -17.000000      -9.000000     -10.000000
     -16.000000      -9.000000     -10.000000
     -15.000000      -9.000000     -10.000000
     -14.000000      -9.000000     -10.000000
     -13.000000      -9.000000     -10.000000
     -12.000000      -9.000000     -10.000000
     -11.000000      -9.000000     -10.000000
     -10.000000      -9.000000     -10.000000
      -9.000000      -9.000000     -10.000000
      -8.000000      -9.000000     -10.000000
      -7.000000      -9.000000     -10.000000
      -6.000000      -9.000000     -10.000000
      -5.000000      -9.000000     -10.000000
      -4.000000      -9.000000     -10.000000
      -3.000000      -9.000000     -10.000000
      -2.000000      -9.000000     -10.000000
      -1.000000      -9.000000     -10.000000
       0.000000      -9.000000     -10.000000
       1.000000      -9.000000     -10.000000
       2.000000      -9.000000     -10.000000
       3.000000      -9.000000     -10.000000
       4.000000      -9.000000     -10.000000
       5.000000      -9.000000     -10.000000
       6.000000      -9.000000     -10.000000
       7.000000      -9.000000     -10.000000
       8.000000      -9.000000     -10.000000
       9.000000      -9.000000     -10.000000
      10.000000      -9.000000     -10.000000
     -50.000000      -8.000000     -10.000000
     -49.000000      -8.000000     -10.000000
     -48.000000      -8.000000     -10.000000
     -47.000000      -8.000000     -10.000000
     -46.000000      -8.000000     -10.000000
     -45.000000      -8.000000     -10.000000
     -44.000000      -8.000000     -10.000000
     -43.000000      -8.000000     -10.000000
     -42.000000      -8.000000     -10.000000
     -41.000000      -8.000000     -10.000000
     -40.000000      -8.000000     -10.000000
     -39.000000      -8.000000     -10.000000
     -38.000000      -8.000000     -10.000000
     -37.000000      -8.000000     -10.000000
     -36.000000      -8.000000     -10.000000
     -35.000000      -8.000000     -10.000000
     -34.000000      -8.000000     -10.000000
     -33.000000      -8.000000     -10.000000
     -32.000000      -8.000000     -10.000000
     -31.000000      -8.000000     -10.000000
     -30.000000      -8.000000     -10.000000
     -29.000000      -8.000000     -10.000000
     -28.000000      -8.000000     -10.000000
     -27.000000      -8.000000     -10.000000
     -26.000000      -8.000000     -10.000000
     -25.000000      -8.000000     -10.000000
     -24.000000      -8.000000     -10.000000
     -23.000000      -8.000000     -10.000000
     -22.000000      -8.000000     -10.000000
     -21.000000      -8.000000     -10.000000
     -20.000000      -8.000000     -10.000000
     -19.000000      -8.000000     -10.000000
     -18.000000      -8.000000     -10.000000
     -17.000000      -8.000000     -10.000000
     -16.000000      -8.000000     -10.000000
     -15.000000      -8.000000     -10.000000
     -14.000000      -8.000000     -10.000000
     -13.000000      -8.000000     -10.000000
     -12.000000      -8.000000     -10.000000
     -11.000000      -8.000000     -10.000000
     -10.000000      -8.000000     -10.000000
      -9.000000      -8.000000     -10.000000
      -8.000000      -8.000000     -10.000000
      -7.000000      -8.000000     -10.000000
      -6.000000      -8.000000     -10.000000
      -5.000000      -8.000000     -10.000000
      -4.000000      -8.000000     -10.000000
      -3.000000      -8.000000     -10.000000
      -2.000000      -8.000000     -10.000000
      -1.000000      -8.000000     -10.000000
       0.000000      -8.000000     -10.000000
       1.000000      -8.000000     -10.000000
       2.000000      -8.000000     -10.000000
       3.000000      -8.000000     -10.000000
       4.000000      -8.000000     -10.000000
       5.000000      -8.000000     -10.000000
       6.000000      -8.000000     -10.000000
       7.000000      -8.000000     -10.000000
       8.000000      -8.000000     -10.000000
       9.000000      -8.000000     -10.000000
      10.000000      -8.000000     -10.000000
     -50.000000      -7.000000     -10.000000
     -49.000000      -7.000000     -10.000000
     -48.000000      -7.000000     -10.000000
     -47.000000      -7.000000     -10.000000
     -46.000000      -7.000000     -10.000000
     -45.000000      -7.000000     -10.000000
     -44.000000      -7.000000     -10.000000
     -43.000000      -7.000000     -10.000000
     -42.000000      -7.000000     -10.000000
     -41.000000      -7.000000     -10.000000
     -40.000000      -7.000000     -10.000000
     -39.000000      -7.000000     -10.000000
     -38.000000      -7.000000     -10.000000
     -37.000000      -7.000000     -10.000000
     -36.000000      -7.000000     -10.000000
     -35.000000      -7.000000     -10.000000
     -34.000000      -7.000000     -10.000000
     -33.000000      -7.000000     -10.000000
     -32.000000      -7.000000     -10.000000
     -31.000000      -7.000000     -10.000000
     -30.000000      -7.000000     -10.000000
     -29.000000      -7.000000     -10.000000
     -28.000000      -7.000000     -10.000000
     -27.000000      -7.000000     -10.000000
     -26.000000      -7.000000     -10.000000
     -25.000000      -7.000000     -10.000000
[...]
POINT_DATA    26901
VECTORS B_total float
  -9.9522934E+00  -1.4190317E+00   3.2075944E+00
  -1.0288075E+01  -1.4579322E+00   3.2945275E+00
  -1.0632994E+01  -1.4983759E+00   3.3821349E+00
  -1.0987281E+01  -1.5405383E+00   3.4701264E+00
  -1.1351206E+01  -1.5846218E+00   3.5581732E+00
  -1.1725084E+01  -1.6308594E+00   3.6459041E+00
  -1.2109284E+01  -1.6795175E+00   3.7328997E+00
  -1.2504236E+01  -1.7309005E+00   3.8186860E+00
  -1.2910433E+01  -1.7853539E+00   3.9027267E+00
  -1.3328444E+01  -1.8432696E+00   3.9844155E+00
  -1.3758921E+01  -1.9050903E+00   4.0630660E+00
  -1.4202598E+01  -1.9713144E+00   4.1379004E+00
  -1.4660299E+01  -2.0425022E+00   4.2080402E+00
  -1.5132937E+01  -2.1192825E+00   4.2724919E+00
  -1.5621517E+01  -2.2023585E+00   4.3301344E+00
  -1.6127127E+01  -2.2925179E+00   4.3797083E+00
  -1.6650928E+01  -2.3906398E+00   4.4198041E+00
  -1.7194155E+01  -2.4977074E+00   4.4488525E+00
  -1.7758087E+01  -2.6148193E+00   4.4651165E+00
  -1.8344030E+01  -2.7432060E+00   4.4666915E+00
  -1.8953304E+01  -2.8842483E+00   4.4515028E+00
  -1.9587196E+01  -3.0394983E+00   4.4173121E+00
  -2.0246946E+01  -3.2107098E+00   4.3617277E+00
  -2.0933704E+01  -3.3998690E+00   4.2822170E+00
  -2.1648487E+01  -3.6092353E+00   4.1761231E+00
  -2.2392134E+01  -3.8413904E+00   4.0406761E+00
  -2.3165234E+01  -4.0992928E+00   3.8730333E+00
  -2.3968046E+01  -4.3863416E+00   3.6702707E+00
  -2.4800383E+01  -4.7064486E+00   3.4294376E+00
  -2.5661455E+01  -5.0641179E+00   3.1476047E+00
  -2.6549673E+01  -5.4645338E+00   2.8219566E+00
  -2.7462406E+01  -5.9136448E+00   2.4499393E+00
  -2.8395702E+01  -6.4182525E+00   2.0294750E+00
  -2.9344002E+01  -6.9860764E+00   1.5592674E+00
  -3.0299837E+01  -7.6257792E+00   1.0391741E+00
  -3.1253553E+01  -8.3469067E+00   4.7063908E-01
  -3.2193054E+01  -9.1596613E+00  -1.4285466E-01
  -3.3103561E+01  -1.0074423E+01  -7.9534775E-01
  -3.3967381E+01  -1.1100853E+01  -1.4779927E+00
  -3.4763638E+01  -1.2246408E+01  -2.1786296E+00
  -3.5468082E+01  -1.3514132E+01  -2.8812129E+00
  -3.6053173E+01  -1.4899593E+01  -3.5648878E+00
  -3.6488857E+01  -1.6387117E+01  -4.2024841E+00
  -3.6744862E+01  -1.7945686E+01  -4.7583928E+00
  -3.6795258E+01  -1.9525505E+01  -5.1861858E+00
  -3.6625816E+01  -2.1056396E+01  -5.4269371E+00
  -3.6243690E+01  -2.2449696E+01  -5.4096122E+00
  -3.5687572E+01  -2.3604744E+01  -5.0548234E+00
  -3.5035122E+01  -2.4420042E+01  -4.2823362E+00
  -1.8591486E+01  -1.3603023E+01  -1.4951792E+00
  -5.5066705E-02  -5.0524330E-01   2.7539349E-01
  -2.0165443E-02  -5.1195908E-01   2.6890135E-01
   1.5244484E-02  -5.1022148E-01   2.7144241E-01
   4.7735691E-02  -5.0061035E-01   2.8233480E-01
   7.4639320E-02  -4.8467159E-01   2.9988027E-01
   9.4440460E-02  -4.6450710E-01   3.2183838E-01
   1.0681248E-01  -4.4229698E-01   3.4589505E-01
   1.1237812E-01  -4.1993856E-01   3.7005603E-01
   1.1234236E-01  -3.9884043E-01   3.9283621E-01
   1.0813236E-01  -3.7988138E-01   4.1331062E-01
   1.0114050E-01  -3.6348677E-01   4.3103829E-01
  -9.9936399E+00  -1.3217503E+00   3.1999216E+00
  -1.0331013E+01  -1.3574604E+00   3.2851346E+00
  -1.0677696E+01  -1.3945961E+00   3.3708708E+00
  -1.1033952E+01  -1.4333197E+00   3.4568360E+00
  -1.1400076E+01  -1.4738183E+00   3.5426970E+00
  -1.1776421E+01  -1.5163075E+00   3.6280789E+00
  -1.2163389E+01  -1.5610342E+00   3.7125576E+00
  -1.2561452E+01  -1.6082802E+00   3.7956545E+00
  -1.2971150E+01  -1.6583664E+00   3.8768284E+00
  -1.3393103E+01  -1.7116568E+00   3.9554663E+00
  -1.3828013E+01  -1.7685632E+00   4.0308738E+00
  -1.4276675E+01  -1.8295503E+00   4.1022644E+00
  -1.4739981E+01  -1.8951418E+00   4.1687469E+00
  -1.5218913E+01  -1.9659263E+00   4.2293124E+00
  -1.5714556E+01  -2.0425653E+00   4.2828212E+00
  -1.6228083E+01  -2.1258013E+00   4.3279901E+00
  -1.6760756E+01  -2.2164674E+00   4.3633800E+00
  -1.7313911E+01  -2.3154998E+00   4.3873839E+00
  -1.7888952E+01  -2.4239509E+00   4.3982205E+00
  -1.8487324E+01  -2.5430067E+00   4.3939257E+00
  -1.9110498E+01  -2.6740081E+00   4.3723540E+00
  -1.9759949E+01  -2.8184760E+00   4.3311753E+00
  -2.0437126E+01  -2.9781430E+00   4.2678833E+00
  -2.1143427E+01  -3.1549921E+00   4.1797991E+00
  -2.1880161E+01  -3.3513045E+00   4.0640802E+00
  -2.2648514E+01  -3.5697138E+00   3.9177163E+00
  -2.3449476E+01  -3.8132823E+00   3.7375622E+00
  -2.4283785E+01  -4.0855708E+00   3.5203094E+00
  -2.5151802E+01  -4.3907433E+00   3.2625203E+00
  -2.6053391E+01  -4.7336740E+00   2.9606526E+00
  -2.6987700E+01  -5.1200747E+00   2.6111236E+00
  -2.7952955E+01  -5.5566382E+00   2.2104142E+00
  -2.8946182E+01  -6.0511971E+00   1.7552357E+00
  -2.9962891E+01  -6.6128702E+00   1.2427554E+00
  -3.0996735E+01  -7.2521968E+00   6.7087603E-01
  -3.2039139E+01  -7.9811811E+00   3.8547695E-02
  -3.3078819E+01  -8.8131790E+00  -6.5391338E-01
  -3.4101227E+01  -9.7624989E+00  -1.4044969E+00
  -3.5087734E+01  -1.0843500E+01  -2.2091250E+00
  -3.6014626E+01  -1.2068981E+01  -3.0610728E+00
  -3.6851952E+01  -1.3447595E+01  -3.9499497E+00
  -3.7562534E+01  -1.4980033E+01  -4.8598204E+00
  -3.8102013E+01  -1.6654091E+01  -5.7662001E+00
  -3.8420937E+01  -1.8438885E+01  -6.6317925E+00
  -3.8470505E+01  -2.0279392E+01  -7.4017067E+00
  -3.8212822E+01  -2.2093021E+01  -7.9995890E+00
  -3.7635422E+01  -2.3770601E+01  -8.3271666E+00
  -3.6767475E+01  -2.5184044E+01  -8.2695475E+00
  -3.5692574E+01  -2.6201324E+01  -7.7074876E+00
  -3.4552002E+01  -2.6707027E+01  -6.5349855E+00
  -2.8113567E+01  -2.2393801E+01  -3.8872643E+00
  -2.2953033E-02  -5.1926231E-01   1.9132185E-01
   2.1595955E-02  -5.1738930E-01   1.9598007E-01
   6.1924934E-02  -5.0623703E-01   2.1247435E-01
   9.4499588E-02  -4.8782921E-01   2.3811865E-01
   1.1746788E-01  -4.6485710E-01   2.6944327E-01
   1.3069344E-01  -4.3999195E-01   3.0303717E-01
   1.3531685E-01  -4.1548824E-01   3.3607399E-01
   1.3315535E-01  -3.9289665E-01   3.6658520E-01
   1.2621689E-01  -3.7309933E-01   3.9345875E-01
   1.1632442E-01  -3.5641336E-01   4.1627675E-01
  -1.0025623E+01  -1.2189192E+00   3.1903169E+00
  -1.0364284E+01  -1.2512094E+00   3.2739475E+00
  -1.0712414E+01  -1.2847966E+00   3.3579712E+00
  -1.1070296E+01  -1.3198286E+00   3.4420912E+00
  -1.1438260E+01  -1.3564764E+00   3.5259717E+00
  -1.1816683E+01  -1.3949363E+00   3.6092348E+00
  -1.2206008E+01  -1.4354339E+00   3.6914546E+00
  -1.2606741E+01  -1.4782269E+00   3.7721486E+00
  -1.3019464E+01  -1.5236087E+00   3.8507719E+00
  -1.3444841E+01  -1.5719124E+00   3.9267080E+00
  -1.3883631E+01  -1.6235162E+00   3.9992564E+00
  -1.4336681E+01  -1.6788470E+00   4.0676236E+00
  -1.4804945E+01  -1.7383869E+00   4.1309094E+00
  -1.5289474E+01  -1.8026795E+00   4.1880922E+00
  -1.5791429E+01  -1.8723371E+00   4.2380171E+00
  -1.6312065E+01  -1.9480497E+00   4.2793813E+00
  -1.6852739E+01  -2.0305943E+00   4.3107190E+00
  -1.7414894E+01  -2.1208482E+00   4.3303924E+00
  -1.8000053E+01  -2.2198029E+00   4.3365769E+00
  -1.8609800E+01  -2.3285823E+00   4.3272576E+00
  -1.9245766E+01  -2.4484661E+00   4.3002191E+00
  -1.9909615E+01  -2.5809155E+00   4.2530475E+00
  -2.0603018E+01  -2.7276103E+00   4.1831241E+00
  -2.1327637E+01  -2.8904889E+00   4.0876274E+00
  -2.2085098E+01  -3.0718014E+00   3.9635229E+00
  -2.2876951E+01  -3.2741780E+00   3.8075774E+00
  -2.3704647E+01  -3.5007029E+00   3.6163223E+00
  -2.4569462E+01  -3.7550125E+00   3.3860555E+00
  -2.5472397E+01  -4.0414114E+00   3.1128283E+00
  -2.6414074E+01  -4.3650126E+00   2.7924457E+00
  -2.7394571E+01  -4.7319069E+00   2.4204881E+00
  -2.8413197E+01  -5.1493578E+00   1.9923613E+00
  -2.9468256E+01  -5.6260319E+00   1.5033865E+00
  -3.0556732E+01  -6.1722445E+00   9.4892323E-01
  -3.1673935E+01  -6.8002090E+00   3.2450736E-01
  -3.2813015E+01  -7.5242252E+00  -3.7401450E-01
  -3.3964294E+01  -8.3607254E+00  -1.1503644E+00
  -3.5114326E+01  -9.3280334E+00  -2.0077143E+00
  -3.6244442E+01  -1.0445569E+01  -2.9484246E+00
  -3.7328838E+01  -1.1732248E+01  -3.9734023E+00
  -3.8332150E+01  -1.3203644E+01  -5.0806365E+00
  -3.9206989E+01  -1.4867538E+01  -6.2622709E+00
  -3.9892593E+01  -1.6717760E+01  -7.4996963E+00
  -4.0316162E+01  -1.8726397E+01  -8.7564487E+00
  -4.0399410E+01  -2.0835728E+01  -9.9697800E+00
  -4.0072044E+01  -2.2951862E+01  -1.1043095E+01
  -3.9292709E+01  -2.4943783E+01  -1.1843213E+01
  -3.8074009E+01  -2.6651453E+01  -1.2206744E+01
  -3.6504227E+01  -2.7905031E+01  -1.1958584E+01
  -3.4755482E+01  -2.8553642E+01  -1.0940865E+01
  -3.3069733E+01  -2.8496059E+01  -9.0445414E+00
  -2.7427042E+01  -2.4017658E+01  -5.3738828E+00
   2.8463840E-02  -5.0707436E-01   1.0566807E-01
   7.7708244E-02  -4.9545479E-01   1.2959671E-01
   1.1646271E-01  -4.7593975E-01   1.6579008E-01
   1.4256382E-01  -4.5172310E-01   2.0910358E-01
   1.5623093E-01  -4.2593479E-01   2.5464416E-01
   1.5928841E-01  -4.0105915E-01   2.9851055E-01
   1.5436745E-01  -3.7869501E-01   3.3820462E-01
   1.4415169E-01  -3.5963297E-01   3.7248042E-01
   1.3096380E-01  -3.4404230E-01   4.0102628E-01
  -1.0049529E+01  -1.1110342E+00   3.1787760E+00
  -1.0389214E+01  -1.1397029E+00   3.2609568E+00
  -1.0738508E+01  -1.1695302E+00   3.3434212E+00
  -1.1097718E+01  -1.2006485E+00   3.4258704E+00
  -1.1467197E+01  -1.2332112E+00   3.5079675E+00
  -1.1847353E+01  -1.2673941E+00   3.5893331E+00
  -1.2238657E+01  -1.3033999E+00   3.6695390E+00
  -1.2641651E+01  -1.3414600E+00   3.7481019E+00
  -1.3056955E+01  -1.3818378E+00   3.8244758E+00
  -1.3485279E+01  -1.4248335E+00   3.8980396E+00
  -1.3927423E+01  -1.4707876E+00   3.9680908E+00
  -1.4384289E+01  -1.5200856E+00   4.0338302E+00
  -1.4856886E+01  -1.5731630E+00   4.0943499E+00
  -1.5346332E+01  -1.6305134E+00   4.1486201E+00
  -1.5853854E+01  -1.6926926E+00   4.1954737E+00
  -1.6380791E+01  -1.7603297E+00   4.2335896E+00
  -1.6928591E+01  -1.8341359E+00   4.2614827E+00
  -1.7498795E+01  -1.9149171E+00   4.2774849E+00
  -1.8093044E+01  -2.0035884E+00   4.2797360E+00
  -1.8713060E+01  -2.1011934E+00   4.2661724E+00
  -1.9360636E+01  -2.2089257E+00   4.2345181E+00
  -2.0037617E+01  -2.3281593E+00   4.1822767E+00
  -2.0745905E+01  -2.4604836E+00   4.1067262E+00
  -2.1487429E+01  -2.6077466E+00   4.0049057E+00
  -2.2264143E+01  -2.7721124E+00   3.8736014E+00
  -2.3077991E+01  -2.9561341E+00   3.7093472E+00
  -2.3930902E+01  -3.1628313E+00   3.5083635E+00
  -2.4824730E+01  -3.3958054E+00   3.2665513E+00
  -2.5761192E+01  -3.6593666E+00   2.9794388E+00
  -2.6741770E+01  -3.9587009E+00   2.6421554E+00
  -2.7767597E+01  -4.3000693E+00   2.2493966E+00
  -2.8839270E+01  -4.6910577E+00   1.7954084E+00
  -2.9956650E+01  -5.1408672E+00   1.2739794E+00
  -3.1118578E+01  -5.6606588E+00   6.7842805E-01
  -3.2322540E+01  -6.2639217E+00   1.5542358E-03
  -3.3564079E+01  -6.9668217E+00  -7.6446223E-01
  -3.4836014E+01  -7.7884541E+00  -1.6282392E+00
  -3.6127041E+01  -8.7508068E+00  -2.5993779E+00
  -3.7419689E+01  -9.8782253E+00  -3.6884730E+00
  -3.8687294E+01  -1.1195955E+01  -4.9065533E+00
  -3.9890053E+01  -1.2727290E+01  -6.2632914E+00
  -4.0970558E+01  -1.4488701E+01  -7.7630062E+00
  -4.1850300E+01  -1.6482576E+01  -9.3975697E+00
  -4.2429333E+01  -1.8687393E+01  -1.1135616E+01
  -4.2592751E+01  -2.1046459E+01  -1.2908910E+01
  -4.2227448E+01  -2.3457706E+01  -1.4598840E+01
  -4.1250839E+01  -2.5769398E+01  -1.6028961E+01
  -3.9648342E+01  -2.7787432E+01  -1.6971191E+01
  -3.7508965E+01  -2.9298700E+01  -1.7171925E+01
  -3.5042534E+01  -3.0109386E+01  -1.6397320E+01
  -3.2563286E+01  -3.0088757E+01  -1.4486237E+01
  -3.0436430E+01  -2.9202005E+01  -1.1390060E+01
  -1.6524925E+01  -1.5894308E+01  -4.0925674E+00
   9.3206406E-02  -4.5930290E-01   3.7991524E-02
   1.3831902E-01  -4.4151497E-01   8.6893082E-02
   1.6734600E-01  -4.1921902E-01   1.4441872E-01
   1.8097878E-01  -3.9571095E-01   2.0379066E-01
   1.8197632E-01  -3.7351131E-01   2.5993919E-01
   1.7387581E-01  -3.5410881E-01   3.0976248E-01
   1.6013432E-01  -3.3813000E-01   3.5196280E-01
   1.4356136E-01  -3.2556295E-01   3.8647765E-01
  -1.0066738E+01  -9.9861240E-01   3.1658266E+00
  -1.0407223E+01  -1.0234818E+00   3.2466972E+00
  -1.0757441E+01  -1.0493627E+00   3.3277609E+00
  -1.1117716E+01  -1.0763710E+00   3.4087174E+00
  -1.1488427E+01  -1.1046411E+00   3.4892302E+00
  -1.1870006E+01  -1.1343274E+00   3.5689182E+00
  -1.2262949E+01  -1.1656076E+00   3.6473539E+00
  -1.2667831E+01  -1.1986847E+00   3.7240534E+00
  -1.3085308E+01  -1.2337904E+00   3.7984686E+00
  -1.3516125E+01  -1.2711886E+00   3.8699784E+00
  -1.3961125E+01  -1.3111793E+00   3.9378774E+00
  -1.4421258E+01  -1.3541021E+00   4.0013633E+00
  -1.4897584E+01  -1.4003425E+00   4.0595231E+00
  -1.5391278E+01  -1.4503365E+00   4.1113205E+00
  -1.5903635E+01  -1.5045782E+00   4.1555772E+00
  -1.6436066E+01  -1.5636270E+00   4.1909599E+00
  -1.6990101E+01  -1.6281179E+00   4.2159643E+00
  -1.7567379E+01  -1.6987725E+00   4.2288980E+00
  -1.8169653E+01  -1.7764148E+00   4.2278695E+00
  -1.8798771E+01  -1.8619871E+00   4.2107720E+00
  -1.9456680E+01  -1.9565744E+00   4.1752734E+00
  -2.0145414E+01  -2.0614319E+00   4.1188045E+00
  -2.0867088E+01  -2.1780195E+00   4.0385437E+00
  -2.1623901E+01  -2.3080480E+00   3.9314032E+00
  -2.2418127E+01  -2.4535332E+00   3.7939982E+00
  -2.3252115E+01  -2.6168728E+00   3.6226368E+00
  -2.4128275E+01  -2.8009264E+00   3.4132445E+00
  -2.5049061E+01  -3.0091336E+00   3.1613305E+00
  -2.6016933E+01  -3.2456527E+00   2.8619092E+00
  -2.7034304E+01  -3.5155408E+00   2.5094309E+00
  -2.8103447E+01  -3.8249784E+00   2.0976882E+00
  -2.9226389E+01  -4.1815481E+00   1.6197267E+00
  -3.0404755E+01  -4.5945854E+00   1.0677142E+00
  -3.1639565E+01  -5.0755930E+00   4.3276691E-01
  -3.2930904E+01  -5.6387224E+00  -2.9532242E-01
  -3.4277367E+01  -6.3012762E+00  -1.1284946E+00
  -3.5675072E+01  -7.0841599E+00  -2.0809796E+00
  -3.7116032E+01  -8.0121346E+00  -3.1699324E+00
  -3.8585369E+01  -9.1135798E+00  -4.4158869E+00
  -4.0057213E+01  -1.0419380E+01  -5.8425188E+00
  -4.1488945E+01  -1.1960295E+01  -7.4747405E+00
  -4.2814323E+01  -1.3762039E+01  -9.3338127E+00
  -4.3936928E+01  -1.5837276E+01  -1.1427895E+01
  -4.4726929E+01  -1.8174040E+01  -1.3736818E+01
  -4.5026218E+01  -2.0721222E+01  -1.6191448E+01
  -4.4667755E+01  -2.3373964E+01  -1.8651415E+01
  -4.3513195E+01  -2.5964607E+01  -2.0889277E+01
  -4.1506634E+01  -2.8267654E+01  -2.2594036E+01
  -3.8730366E+01  -3.0026163E+01  -2.3405691E+01
  -3.5437397E+01  -3.1000181E+01  -2.2983238E+01
  -3.2034309E+01  -3.1025486E+01  -2.1089287E+01
  -2.9005957E+01  -3.0059822E+01  -1.7657360E+01
  -2.6804169E+01  -2.8194595E+01  -1.2807989E+01
   1.0491943E-01  -3.8844109E-01  -5.2444458E-02
   1.5606117E-01  -3.7714958E-01   9.9210739E-03
   1.8766785E-01  -3.6184883E-01   8.2406998E-02
   2.0102119E-01  -3.4554386E-01   1.5609598E-01
   1.9986057E-01  -3.3044338E-01   2.2461987E-01
   1.8870068E-01  -3.1775188E-01   2.8442764E-01
   1.7172337E-01  -3.0788469E-01   3.3420646E-01
   1.5219593E-01  -3.0070972E-01   3.7424892E-01
  -1.0078615E+01  -8.8222402E-01   3.1523681E+00
  -1.0419713E+01  -9.0313905E-01   3.2320833E+00
  -1.0770649E+01  -9.2491043E-01   3.3119180E+00
  -1.1131765E+01  -9.4763672E-01   3.3915722E+00
  -1.1503458E+01  -9.7143203E-01   3.4707088E+00
  -1.1886182E+01  -9.9642789E-01   3.5489476E+00
  -1.2280459E+01  -1.0227754E+00   3.6258607E+00
  -1.2686890E+01  -1.0506474E+00   3.7009645E+00
  -1.3106157E+01  -1.0802417E+00   3.7737110E+00
  -1.3539042E+01  -1.1117829E+00   3.8434784E+00
  -1.3986426E+01  -1.1455274E+00   3.9095600E+00
  -1.4449296E+01  -1.1817657E+00   3.9711514E+00
  -1.4928761E+01  -1.2208277E+00   4.0273366E+00
  -1.5426047E+01  -1.2630876E+00   4.0770731E+00
  -1.5942507E+01  -1.3089701E+00   4.1191759E+00
  -1.6479616E+01  -1.3589568E+00   4.1522999E+00
  -1.7038980E+01  -1.4135967E+00   4.1749258E+00
  -1.7622328E+01  -1.4735154E+00   4.1853409E+00
  -1.8231512E+01  -1.5394288E+00   4.1816258E+00
  -1.8868500E+01  -1.6121603E+00   4.1616364E+00
  -1.9535378E+01  -1.6926609E+00   4.1229920E+00
  -2.0234352E+01  -1.7820361E+00   4.0630550E+00
  -2.0967745E+01  -1.8815793E+00   3.9789190E+00
  -2.1738007E+01  -1.9928137E+00   3.8673766E+00
  -2.2547718E+01  -2.1175437E+00   3.7248883E+00
  -2.3399611E+01  -2.2579324E+00   3.5475531E+00
  -2.4296568E+01  -2.4165745E+00   3.3310223E+00
  -2.5241636E+01  -2.5966148E+00   3.0704358E+00
  -2.6238012E+01  -2.8018887E+00   2.7603207E+00
  -2.7289038E+01  -3.0371017E+00   2.3944714E+00
  -2.8398159E+01  -3.3080602E+00   1.9658037E+00
  -2.9568893E+01  -3.6219692E+00   1.4661717E+00
  -3.0804737E+01  -3.9878054E+00   8.8611007E-01
  -3.2109070E+01  -4.4167795E+00   2.1448566E-01
  -3.3484875E+01  -4.9228916E+00  -5.6204093E-01
  -3.4934235E+01  -5.5235405E+00  -1.4597737E+00
  -3.6457291E+01  -6.2401714E+00  -2.4990058E+00
  -3.8050339E+01  -7.0987635E+00  -3.7052259E+00
  -3.9702488E+01  -8.1299620E+00  -5.1102190E+00
  -4.1390453E+01  -9.3683996E+00  -6.7523985E+00
  -4.3070946E+01  -1.0850533E+01  -8.6751547E+00
  -4.4670948E+01  -1.2610065E+01  -1.0921366E+01
  -4.6077385E+01  -1.4669829E+01  -1.3521700E+01
  -4.7129711E+01  -1.7029184E+01  -1.6474445E+01
  -4.7622032E+01  -1.9646975E+01  -1.9716345E+01
  -4.7323570E+01  -2.2422663E+01  -2.3088234E+01
  -4.6025600E+01  -2.5182041E+01  -2.6306566E+01
  -4.3614777E+01  -2.7678200E+01  -2.8960035E+01
  -4.0156116E+01  -2.9618946E+01  -3.0552563E+01
  -3.5948349E+01  -3.0723717E+01  -3.0600357E+01
  -3.1509319E+01  -3.0797031E+01  -2.8761127E+01
  -2.7473431E+01  -2.9788702E+01  -2.4941481E+01
  -2.4432205E+01  -2.7810263E+01  -1.9325989E+01
  -2.2787327E+01  -2.5097473E+01  -1.2308185E+01
   1.6370583E-01  -2.7823257E-01  -5.1162720E-02
   1.9761276E-01  -2.7674770E-01   3.3995628E-02
   2.1097183E-01  -2.7396774E-01   1.1975765E-01
   2.0837593E-01  -2.7138996E-01   1.9853354E-01
   1.9516087E-01  -2.6979542E-01   2.6634741E-01
   1.7609501E-01  -2.6942396E-01   3.2205224E-01
   1.5475559E-01  -2.7014303E-01   3.6624765E-01
  -1.0086419E+01  -7.6249439E-01   3.1394851E+00
  -1.0427974E+01  -7.7932328E-01   3.2182190E+00
  -1.0779453E+01  -7.9684603E-01   3.2970150E+00
  -1.1141215E+01  -8.1514293E-01   3.3755729E+00
  -1.1513671E+01  -8.3430690E-01   3.4535556E+00
  -1.1897292E+01  -8.5444516E-01   3.5305843E+00
  -1.2292624E+01  -8.7568074E-01   3.6062310E+00
  -1.2700286E+01  -8.9815474E-01   3.6800127E+00
  -1.3120989E+01  -9.2202824E-01   3.7513819E+00
  -1.3555540E+01  -9.4748521E-01   3.8197172E+00
  -1.4004850E+01  -9.7473460E-01   3.8843107E+00
  -1.4469945E+01  -1.0040146E+00   3.9443572E+00
  -1.4951969E+01  -1.0355952E+00   3.9989378E+00
  -1.5452193E+01  -1.0697834E+00   4.0470061E+00
  -1.5972019E+01  -1.1069286E+00   4.0873713E+00
  -1.6512981E+01  -1.1474272E+00   4.1186795E+00
  -1.7076750E+01  -1.1917324E+00   4.1393986E+00
  -1.7665127E+01  -1.2403617E+00   4.1478000E+00
  -1.8280054E+01  -1.2939095E+00   4.1419396E+00
  -1.8923603E+01  -1.3530610E+00   4.1196423E+00
  -1.9597986E+01  -1.4186112E+00   4.0784855E+00
  -2.0305559E+01  -1.4914868E+00   4.0157747E+00
  -2.1048832E+01  -1.5727769E+00   3.9285266E+00
  -2.1830473E+01  -1.6637700E+00   3.8134327E+00
  -2.2653349E+01  -1.7659992E+00   3.6668150E+00
  -2.3520533E+01  -1.8813126E+00   3.4845910E+00
  -2.4435345E+01  -2.0119386E+00   3.2621641E+00
  -2.5401375E+01  -2.1605949E+00   2.9943457E+00
  -2.6422512E+01  -2.3306172E+00   2.6752210E+00
  -2.7502974E+01  -2.5261278E+00   2.2979875E+00
  -2.8647333E+01  -2.7522545E+00   1.8547488E+00
  -2.9860544E+01  -3.0154171E+00   1.3362442E+00
  -3.1147953E+01  -3.3236904E+00   7.3146552E-01