# vtk DataFile Version 3.0
T01 + IGRF magnetic field in GSW coordinates
ASCII
DATASET STRUCTURED_GRID
DIMENSIONS     61    21    21
POINTS    26901 float
     -50.000000     -10.000000     -10.000000
     -49.000000     -10.000000     -10.000000
     -48.000000     -10.000000     -10.000000
     -47.000000     -10.000000     -10.000000
     -46.000000     -10.000000     -10.000000
     -45.000000     -10.000000     -10.000000
     -44.000000     -10.000000     -10.000000
     -43.000000     -10.000000     -10.000000
     -42.000000     -10.000000     -10.000000
     -41.000000     -10.000000     -10.000000
     -40.000000     -10.000000     -10.000000
     -39.000000     -10.000000     -10.000000
     -38.000000     -10.000000     -10.000000
     -37.000000     -10.000000     -10.000000
     -36.000000     -10.000000     -10.000000
     -35.000000     -10.000000     -10.000000
     -34.000000     -10.000000     -10.000000
     -33.000000     -10.000000     -10.000000
     -32.000000     -10.000000     -10.000000
     -31.000000     -10.000000     -10.000000
     -30.000000     -10.000000     -10.000000
     -29.000000     -10.000000     -10.000000
     -28.000000     -10.000000     -10.000000
     -27.000000     -10.000000     -10.000000
     -26.000000     -10.000000     -10.000000
     -25.000000     -10.000000     -10.000000
     -24.000000     -10.000000     -10.000000
     -23.000000     -10.000000     -10.000000
     -22.000000     -10.000000     -10.000000
     -21.000000     -10.000000     -10.000000
     -20.000000     -10.000000     -10.000000
     -19.000000     -10.000000     -10.000000
     -18.000000     -10.000000     -10.000000
     -17.000000     -10.000000     -10.000000
     -16.000000     -10.000000     -10.000000
     -15.000000     -10.000000     -10.000000
     -14.000000     -10.000000     -10.000000
     -13.000000     -10.000000     -10.000000
     -12.000000     -10.000000     -10.000000
     -11.000000     -10.000000     -10.000000
     -10.000000     -10.000000     -10.000000
      -9.000000     -10.000000     -10.000000
      -8.000000     -10.000000     -10.000000
      -7.000000     -10.000000     -10.000000
      -6.000000     -10.000000     -10.000000
      -5.000000     -10.000000     -10.000000
      -4.000000     -10.000000     -10.000000
      -3.000000     -10.000000     -10.000000
      -2.000000     -10.000000     -10.000000
      -1.000000     -10.000000     -10.000000
       0.000000     -10.000000     -10.000000
       1.000000     -10.000000     -10.000000
       2.000000     -10.000000     -10.000000
       3.000000     -10.000000     -10.000000
       4.000000     -10.000000     -10.000000
       5.000000     -10.000000     -10.000000
       6.000000     -10.000000     -10.000000
       7.000000     -10.000000     -10.000000
       8.000000     -10.000000     -10.000000
       9.000000     -10.000000     -10.000000
      10.000000     -10.000000     -10.000000
     -50.000000      -9.000000     -10.000000
     -49.000000      -9.000000     -10.000000
     -48.000000      -9.000000     -10.000000
     -47.000000      -9.000000     -10.000000
     -46.000000      -9.000000     -10.000000
     -45.000000      -9.000000     -10.000000
     -44.000000      -9.000000     -10.000000
     -43.000000      -9.000000     -10.000000
     -42.000000      -9.000000     -10.000000
     -41.000000      -9.000000     -10.000000
     -40.000000      -9.000000     -10.000000
     -39.000000      -9.000000     -10.000000
     -38.000000      -9.000000     -10.000000
     -37.000000      -9.000000     -10.000000
     -36.000000      -9.000000     -10.000000
     -35.000000      -9.000000     -10.000000
     -34.000000      -9.000000     -10.000000
     -33.000000      -9.000000     -10.000000
     -32.000000      -9.000000     -10.000000
     -31.000000      -9.000000     -10.000000
     -30.000000      -9.000000     -10.000000
     -29.000000      -9.000000     -10.000000
     -28.000000      -9.000000     -10.000000
     -27.000000      -9.000000     -10.000000
     -26.000000      -9.000000     -10.000000
     -25.000000      -9.000000     -10.000000
     -24.000000      -9.000000     -10.000000
     -23.000000      -9.000000     -10.000000
     -22.000000      -9.000000     -10.000000
     -21.000000      -9.000000     -10.000000
     -20.000000      -9.000000     -10.000000
     -19.000000      -9.000000     -10.000000
     -18.000000      -9.000000     -10.000000
     -17.000000      -9.000000     -10.000000
     -16.000000      -9.000000     -10.000000
     -15.000000      -9.000000     -10.000000
     -14.000000      -9.000000     -10.000000
     -13.000000      -9.000000     -10.000000
     -12.000000      -9.000000     -10.000000
     -11.000000      -9.000000     -10.000000
     -10.000000      -9.000000     -10.000000
      -9.000000      -9.000000     -10.000000
      -8.000000      -9.000000     -10.000000
      -7.000000      -9.000000     -10.000000
      -6.000000      -9.000000     -10.000000
      -5.000000      -9.000000     -10.000000
      -4.000000      -9.000000     -10.000000
      -3.000000      -9.000000     -10.000000
      -2.000000      -9.000000     -10.000000
      -1.000000      -9.000000     -10.000000
       0.000000      -9.000000     -10.000000
       1.000000      -9.000000     -10.000000
       2.000000      -9.000000     -10.000000
       3.000000      -9.000000     -10.000000
       4.000000      -9.000000     -10.000000
       5.000000      -9.000000     -10.000000
       6.000000      -9.000000     -10.000000
       7.000000      -9.000000     -10.000000
       8.000000      -9.000000     -10.000000
       9.000000      -9.000000     -10.000000
      10.000000      -9.000000     -10.000000
     -50.000000      -8.000000     -10.000000
     -49.000000      -8.000000     -10.000000
     -48.000000      -8.000000     -10.000000
     -47.000000      -8.000000     -10.000000
     -46.000000      -8.000000     -10.000000
     -45.000000      -8.000000     -10.000000
     -44.000000      -8.000000     -10.000000
     -43.000000      -8.000000     -10.000000
     -42.000000      -8.000000     -10.000000
     -41.000000      -8.000000     -10.000000
     -40.000000      -8.000000     -10.000000
     -39.000000      -8.000000     -10.000000
     -38.000000      -8.000000     -10.000000
     -37.000000      -8.000000     -10.000000
     -36.000000      -8.000000     -10.000000
     -35.000000      -8.000000     -10.000000
     -34.000000      -8.000000     -10.000000
     -33.000000      -8.000000     -10.000000
     -32.000000      -8.000000     -10.000000
     -31.000000      -8.000000     -10.000000
     -30.000000      -8.000000     -10.000000
     -29.000000      -8.000000     -10.000000
     -28.000000      -8.000000     -10.000000
     -27.000000      -8.000000     -10.000000
     -26.000000      -8.000000     -10.000000
     -25.000000      -8.000000     -10.000000
     -24.000000      -8.000000     -10.000000
     -23.000000      -8.000000     -10.000000
     -22.000000      -8.000000     -10.000000
     -21.000000      -8.000000     -10.000000
     -20.000000      -8.000000     -10.000000
     -19.000000      -8.000000     -10.000000
     -18.000000      -8.000000     -10.000000
     -17.000000      -8.000000     -10.000000
     -16.000000      -8.000000     -10.000000
     -15.000000      -8.000000     -10.000000
     -14.000000      -8.000000     -10.000000
     -13.000000      -8.000000     -10.000000
     -12.000000      -8.000000     -10.000000
     -11.000000      -8.000000     -10.000000
     -10.000000      -8.000000     -10.000000
      -9.000000      -8.000000     -10.000000
      -8.000000      -8.000000     -10.000000
      -7.000000      -8.000000     -10.000000
      -6.000000      -8.000000     -10.000000
      -5.000000      -8.000000     -10.000000
      -4.000000      -8.000000     -10.000000
      -3.000000      -8.000000     -10.000000
      -2.000000      -8.000000     -10.000000
      -1.000000      -8.000000     -10.000000
       0.000000      -8.000000     -10.000000
       1.000000      -8.000000     -10.000000
       2.000000      -8.000000     -10.000000
       3.000000      -8.000000     -10.000000
       4.000000      -8.000000     -10.000000
       5.000000      -8.000000     -10.000000
       6.000000      -8.000000     -10.000000
       7.000000      -8.000000     -10.000000
       8.000000      -8.000000     -10.000000
       9.000000      -8.000000     -10.000000
      10.000000      -8.000000     -10.000000
     -50.000000      -7.000000     -10.000000
     -49.000000      -7.000000     -10.000000
     -48.000000      -7.000000     -10.000000
     -47.000000      -7.000000     -10.000000
     -46.000000      -7.000000     -10.000000
     -45.000000      -7.000000     -10.000000
     -44.000000      -7.000000     -10.000000
     -43.000000      -7.000000     -10.000000
     -42.000000      -7.000000     -10.000000
     -41.000000      -7.000000     -10.000000
     -40.000000      -7.000000     -10.000000
     -39.000000      -7.000000     -10.000000
     -38.000000      -7.000000     -10.000000
     -37.000000      -7.000000     -10.000000
     -36.000000      -7.000000     -10.000000
     -35.000000      -7.000000     -10.000000
     -34.000000      -7.000000     -10.000000
     -33.000000      -7.000000     -10.000000
     -32.000000      -7.000000     -10.000000
     -31.000000      -7.000000     -10.000000
     -30.000000      -7.000000     -10.000000
     -29.000000      -7.000000     -10.000000
     -28.000000      -7.000000     -10.000000
     -27.000000      -7.000000     -10.000000
     -26.000000      -7.000000     -10.000000
     -25.000000      -7.000000     -10.000000
[...]
POINT_DATA    26901
VECTORS B_total float
  -9.0430298E+00  -1.0737523E+00   3.2822816E+00
  -9.3581018E+00  -1.1037806E+00   3.3662610E+00
  -9.6827393E+00  -1.1355191E+00   3.4508269E+00
  -1.0017253E+01  -1.1691754E+00   3.5357614E+00
  -1.0362000E+01  -1.2049860E+00   3.6208215E+00
  -1.0717388E+01  -1.2432193E+00   3.7057362E+00
  -1.1083877E+01  -1.2841799E+00   3.7902026E+00
  -1.1461993E+01  -1.3282126E+00   3.8738797E+00
  -1.1852337E+01  -1.3757069E+00   3.9563823E+00
  -1.2255586E+01  -1.4271024E+00   4.0372729E+00
  -1.2672505E+01  -1.4828951E+00   4.1160531E+00
  -1.3103952E+01  -1.5436425E+00   4.1921515E+00
  -1.3550885E+01  -1.6099719E+00   4.2649150E+00
  -1.4014358E+01  -1.6825869E+00   4.3335891E+00
  -1.4495526E+01  -1.7622765E+00   4.3973098E+00
  -1.4995645E+01  -1.8499243E+00   4.4550853E+00
  -1.5516056E+01  -1.9465173E+00   4.5057793E+00
  -1.6058182E+01  -2.0531595E+00   4.5481009E+00
  -1.6623507E+01  -2.1710815E+00   4.5805888E+00
  -1.7213562E+01  -2.3016565E+00   4.6016030E+00
  -1.7829901E+01  -2.4464164E+00   4.6093178E+00
  -1.8474064E+01  -2.6070700E+00   4.6017232E+00
  -1.9147566E+01  -2.7855263E+00   4.5766215E+00
  -1.9851851E+01  -2.9839230E+00   4.5316386E+00
  -2.0588270E+01  -3.2046590E+00   4.4642272E+00
  -2.1358042E+01  -3.4504306E+00   4.3716760E+00
  -2.2162207E+01  -3.7242961E+00   4.2511115E+00
  -2.3001566E+01  -4.0297089E+00   4.0995007E+00
  -2.3876595E+01  -4.3705950E+00   3.9136529E+00
  -2.4787315E+01  -4.7514205E+00   3.6902318E+00
  -2.5733141E+01  -5.1772647E+00   3.4257996E+00
  -2.6712652E+01  -5.6538949E+00   3.1168962E+00
  -2.7723362E+01  -6.1878405E+00   2.7601919E+00
  -2.8761457E+01  -6.7864599E+00   2.3527167E+00
  -2.9821554E+01  -7.4579878E+00   1.8921552E+00
  -3.0896479E+01  -8.2115412E+00   1.3771853E+00
  -3.1977097E+01  -9.0570526E+00   8.0781269E-01
  -3.3052101E+01  -1.0005020E+01   1.8564260E-01
  -3.4107769E+01  -1.1066010E+01  -4.8593998E-01
  -3.5127510E+01  -1.2249689E+01  -1.2016422E+00
  -3.6091263E+01  -1.3563217E+01  -1.9540571E+00
  -3.6974773E+01  -1.5008844E+01  -2.7330883E+00
  -3.7749229E+01  -1.6580591E+01  -3.5247147E+00
  -3.8382023E+01  -1.8260338E+01  -4.3088675E+00
  -3.8839584E+01  -2.0013834E+01  -5.0566378E+00
  -3.9093269E+01  -2.1787960E+01  -5.7275658E+00
  -3.9128220E+01  -2.3510605E+01  -6.2683587E+00
  -3.8954102E+01  -2.5094782E+01  -6.6145773E+00
  -3.8614830E+01  -2.6447697E+01  -6.6962109E+00
  -3.8193649E+01  -2.7483892E+01  -6.4468575E+00
  -3.7810555E+01  -2.8139862E+01  -5.8146124E+00
  -8.6277992E-02  -1.6768551E-01   5.1850891E-01
  -9.2094898E-02  -1.9549656E-01   5.0884533E-01
  -9.1153860E-02  -2.2392464E-01   4.9949551E-01
  -8.4448338E-02  -2.5046825E-01   4.9162102E-01
  -7.3658466E-02  -2.7334213E-01   4.8593783E-01
  -6.0689926E-02  -2.9160023E-01   4.8265553E-01
  -4.7247410E-02  -3.0510902E-01   4.8156905E-01
  -3.4615040E-02  -3.1428146E-01   4.8222136E-01
  -2.3571968E-02  -3.1985664E-01   4.8406327E-01
  -1.4471531E-02  -3.2266235E-01   4.8657638E-01
  -9.0943575E+00  -1.0045581E+00   3.2918279E+00
  -9.4119997E+00  -1.0324074E+00   3.3748722E+00
  -9.7394419E+00  -1.0618713E+00   3.4583850E+00
  -1.0077025E+01  -1.0931432E+00   3.5421433E+00
  -1.0425140E+01  -1.1264436E+00   3.6258996E+00
  -1.0784229E+01  -1.1620225E+00   3.7093780E+00
  -1.1154794E+01  -1.2001637E+00   3.7922702E+00
  -1.1537410E+01  -1.2411888E+00   3.8742285E+00
  -1.1932727E+01  -1.2854608E+00   3.9548600E+00
  -1.2341482E+01  -1.3333910E+00   4.0337186E+00
  -1.2764509E+01  -1.3854427E+00   4.1102943E+00
  -1.3202738E+01  -1.4421388E+00   4.1840019E+00
  -1.3657207E+01  -1.5040683E+00   4.2541676E+00
  -1.4129066E+01  -1.5718935E+00   4.3200150E+00
  -1.4619576E+01  -1.6463590E+00   4.3806496E+00
  -1.5130104E+01  -1.7283018E+00   4.4350405E+00
  -1.5662123E+01  -1.8186603E+00   4.4820051E+00
  -1.6217197E+01  -1.9184872E+00   4.5201931E+00
  -1.6796972E+01  -2.0289629E+00   4.5480714E+00
  -1.7403158E+01  -2.1514103E+00   4.5639119E+00
  -1.8037502E+01  -2.2873139E+00   4.5657859E+00
  -1.8701777E+01  -2.4383414E+00   4.5515537E+00
  -1.9397741E+01  -2.6063685E+00   4.5188694E+00
  -2.0127132E+01  -2.7935131E+00   4.4651775E+00
  -2.0891630E+01  -3.0021732E+00   4.3877163E+00
  -2.1692822E+01  -3.2350729E+00   4.2835116E+00
  -2.2532194E+01  -3.4953334E+00   4.1493759E+00
  -2.3411045E+01  -3.7865248E+00   3.9818878E+00
  -2.4330429E+01  -4.1127582E+00   3.7773814E+00
  -2.5291025E+01  -4.4787807E+00   3.5319338E+00
  -2.6292984E+01  -4.8900790E+00   3.2413812E+00
  -2.7335718E+01  -5.3529983E+00   2.9013777E+00
  -2.8417639E+01  -5.8748770E+00   2.5075107E+00
  -2.9535904E+01  -6.4641843E+00   2.0554914E+00
  -3.0686132E+01  -7.1306624E+00   1.5413896E+00
  -3.1862148E+01  -7.8854508E+00   9.6191537E-01
  -3.3055656E+01  -8.7411251E+00   3.1464660E-01
  -3.4255859E+01  -9.7115965E+00  -4.0180635E-01
  -3.5448799E+01  -1.0811661E+01  -1.1877103E+00
  -3.6616341E+01  -1.2056028E+01  -2.0421023E+00
  -3.7734726E+01  -1.3457495E+01  -2.9624033E+00
  -3.8772820E+01  -1.5023994E+01  -3.9433177E+00
  -3.9690708E+01  -1.6754307E+01  -4.9745340E+00
  -4.0439796E+01  -1.8632591E+01  -6.0369148E+00
  -4.0966003E+01  -2.0622440E+01  -7.0974436E+00
  -4.1217594E+01  -2.2661989E+01  -8.1041660E+00
  -4.1158031E+01  -2.4662212E+01  -8.9832325E+00
  -4.0782467E+01  -2.6511074E+01  -9.6406441E+00
  -4.0133556E+01  -2.8085037E+01  -9.9706497E+00
  -3.9310734E+01  -2.9267349E+01  -9.8704491E+00
  -3.8467411E+01  -2.9969456E+01  -9.2583199E+00
  -3.7794044E+01  -3.0149157E+01  -8.0894279E+00
  -1.2516928E-01  -1.7618942E-01   5.3424597E-01
  -1.2314034E-01  -2.1361923E-01   5.1683950E-01
  -1.1273670E-01  -2.4788380E-01   5.0187826E-01
  -9.6707344E-02  -2.7658653E-01   4.9066448E-01
  -7.8008652E-02  -2.9867458E-01   4.8354530E-01
  -5.9170246E-02  -3.1422043E-01   4.8014760E-01
  -4.1975021E-02  -3.2404709E-01   4.7967768E-01
  -2.7383804E-02  -3.2934141E-01   4.8120141E-01
  -1.5723228E-02  -3.3132267E-01   4.8387778E-01
  -9.1444397E+00  -9.3250382E-01   3.3023946E+00
  -9.4645472E+00  -9.5789444E-01   3.3846200E+00
  -9.7946730E+00  -9.8477900E-01   3.4672043E+00
  -1.0135184E+01  -1.0133349E+00   3.5499201E+00
  -1.0486503E+01  -1.0437639E+00   3.6325145E+00
  -1.0849103E+01  -1.0762951E+00   3.7147069E+00
  -1.1223527E+01  -1.1111887E+00   3.7961826E+00
  -1.1610392E+01  -1.1487390E+00   3.8765881E+00
  -1.2010399E+01  -1.1892799E+00   3.9555228E+00
  -1.2424337E+01  -1.2331887E+00   4.0325303E+00
  -1.2853103E+01  -1.2808919E+00   4.1070890E+00
  -1.3297695E+01  -1.3328711E+00   4.1785984E+00
  -1.3759233E+01  -1.3896704E+00   4.2463655E+00
  -1.4238954E+01  -1.4519026E+00   4.3095908E+00
  -1.4738214E+01  -1.5202589E+00   4.3673477E+00
  -1.5258494E+01  -1.5955175E+00   4.4185681E+00
  -1.5801391E+01  -1.6785554E+00   4.4620218E+00
  -1.6368608E+01  -1.7703586E+00   4.4962988E+00
  -1.6961948E+01  -1.8720381E+00   4.5197945E+00
  -1.7583294E+01  -1.9848455E+00   4.5306940E+00
  -1.8234596E+01  -2.1101916E+00   4.5269613E+00
  -1.8917849E+01  -2.2496710E+00   4.5063319E+00
  -1.9635071E+01  -2.4050906E+00   4.4663076E+00
  -2.0388298E+01  -2.5785043E+00   4.4041510E+00
  -2.1179548E+01  -2.7722540E+00   4.3168797E+00
  -2.2010826E+01  -2.9890378E+00   4.2012558E+00
  -2.2884079E+01  -3.2319574E+00   4.0537624E+00
  -2.3801165E+01  -3.5046134E+00   3.8705759E+00
  -2.4763790E+01  -3.8111992E+00   3.6475272E+00
  -2.5773392E+01  -4.1566186E+00   3.3800673E+00
  -2.6831009E+01  -4.5466251E+00   3.0632534E+00
  -2.7937069E+01  -4.9879837E+00   2.6917605E+00
  -2.9091156E+01  -5.4886642E+00   2.2599580E+00
  -3.0291758E+01  -6.0580616E+00   1.7620312E+00
  -3.1535978E+01  -6.7072487E+00   1.1921350E+00
  -3.2819237E+01  -7.4492297E+00   5.4454011E-01
  -3.4134861E+01  -8.2991562E+00  -1.8629324E-01
  -3.5473469E+01  -9.2743940E+00  -1.0057478E+00
  -3.6821865E+01  -1.0394249E+01  -1.9191639E+00
  -3.8161320E+01  -1.1679092E+01  -2.9318490E+00
  -3.9465019E+01  -1.3148442E+01  -4.0485711E+00
  -4.0694859E+01  -1.4817587E+01  -5.2718830E+00
  -4.1798431E+01  -1.6692320E+01  -6.5984964E+00
  -4.2707806E+01  -1.8761772E+01  -8.0131598E+00
  -4.3342541E+01  -2.0989952E+01  -9.4803257E+00
  -4.3619522E+01  -2.3307880E+01  -1.0935293E+01
  -4.3470852E+01  -2.5609272E+01  -1.2278135E+01
  -4.2868370E+01  -2.7753838E+01  -1.3374701E+01
  -4.1848831E+01  -2.9581205E+01  -1.4068505E+01
  -4.0530411E+01  -3.0935757E+01  -1.4203977E+01
  -3.9110744E+01  -3.1697205E+01  -1.3656226E+01
  -3.7842155E+01  -3.1807693E+01  -1.2357886E+01
  -3.2462448E+01  -2.7458294E+01  -8.9743385E+00
  -1.6425991E-01  -2.0890045E-01   5.4093075E-01
  -1.4815044E-01  -2.5167656E-01   5.1528645E-01
  -1.2452507E-01  -2.8629589E-01   4.9596930E-01
  -9.7901344E-02  -3.1170464E-01   4.8346186E-01
  -7.1947098E-02  -3.2842445E-01   4.7703362E-01
  -4.8995018E-02  -3.3792686E-01   4.7525907E-01
  -3.0158997E-02  -3.4198952E-01   4.7659826E-01
  -1.5620232E-02  -3.4231615E-01   4.7970879E-01
  -9.1921024E+00  -8.5793751E-01   3.3137858E+00
  -9.5145197E+00  -8.8062221E-01   3.3953164E+00
  -9.8471518E+00  -9.0465808E-01   3.4771068E+00
  -1.0190392E+01  -9.3020433E-01   3.5589249E+00
  -1.0544689E+01  -9.5744205E-01   3.6405134E+00
  -1.0910550E+01  -9.8657715E-01   3.7215862E+00
  -1.1288548E+01  -1.0178430E+00   3.8018231E+00
  -1.1679342E+01  -1.0515046E+00   3.8808639E+00
  -1.2083676E+01  -1.0878617E+00   3.9583006E+00
  -1.2502393E+01  -1.1272542E+00   4.0336666E+00
  -1.2936441E+01  -1.1700670E+00   4.1064301E+00
  -1.3386889E+01  -1.2167349E+00   4.1759744E+00
  -1.3854924E+01  -1.2677497E+00   4.2415891E+00
  -1.4341866E+01  -1.3236674E+00   4.3024492E+00
  -1.4849165E+01  -1.3851162E+00   4.3576007E+00
  -1.5378404E+01  -1.4528050E+00   4.4059362E+00
  -1.5931295E+01  -1.5275353E+00   4.4461808E+00
  -1.6509678E+01  -1.6102116E+00   4.4768672E+00
  -1.7115499E+01  -1.7018567E+00   4.4963217E+00
  -1.7750818E+01  -1.8036276E+00   4.5026445E+00
  -1.8417770E+01  -1.9168350E+00   4.4936972E+00
  -1.9118578E+01  -2.0429688E+00   4.4670944E+00
  -1.9855513E+01  -2.1837261E+00   4.4201880E+00
  -2.0630911E+01  -2.3410504E+00   4.3500638E+00
  -2.1447138E+01  -2.5171745E+00   4.2535214E+00
  -2.2306618E+01  -2.7146895E+00   4.1270604E+00
  -2.3211788E+01  -2.9366026E+00   3.9668355E+00
  -2.4165102E+01  -3.1864386E+00   3.7686176E+00
  -2.5168961E+01  -3.4683456E+00   3.5277240E+00
  -2.6225649E+01  -3.7872326E+00   3.2389612E+00
  -2.7337200E+01  -4.1489353E+00   2.8965673E+00
  -2.8505224E+01  -4.5604162E+00   2.4941804E+00
  -2.9730721E+01  -5.0300150E+00   2.0248477E+00
  -3.1013836E+01  -5.5677519E+00   1.4810615E+00
  -3.2353630E+01  -6.1856842E+00   8.5477984E-01
  -3.3747749E+01  -6.8983126E+00   1.3739955E-01
  -3.5191982E+01  -7.7229905E+00  -6.8041909E-01
  -3.6679394E+01  -8.6802158E+00  -1.6090919E+00
  -3.8198803E+01  -9.7936258E+00  -2.6605725E+00
  -3.9732227E+01  -1.1089336E+01  -3.8486364E+00
  -4.1250992E+01  -1.2594145E+01  -5.1884041E+00
  -4.2710632E+01  -1.4331914E+01  -6.6941376E+00
  -4.4045567E+01  -1.6317533E+01  -8.3740892E+00
  -4.5165642E+01  -1.8548018E+01  -1.0221434E+01
  -4.5958103E+01  -2.0991289E+01  -1.2201340E+01
  -4.6298965E+01  -2.3574400E+01  -1.4236357E+01
  -4.6076904E+01  -2.6175503E+01  -1.6194807E+01
  -4.5228508E+01  -2.8624924E+01  -1.7889414E+01
  -4.3777370E+01  -3.0721136E+01  -1.9093182E+01
  -4.1862213E+01  -3.2262943E+01  -1.9574787E+01
  -3.9737785E+01  -3.3091946E+01  -1.9146685E+01
  -3.7739700E+01  -3.3131393E+01  -1.7709873E+01
  -3.6220779E+01  -3.2405670E+01  -1.5276473E+01
  -1.0716176E+01  -9.3911810E+00  -3.1601696E+00
  -1.9057178E-01  -2.6612663E-01   5.3027534E-01
  -1.5633297E-01  -3.0557060E-01   4.9993706E-01
  -1.1921120E-01  -3.3274269E-01   4.8056412E-01
  -8.4260941E-02  -3.4893513E-01   4.7064161E-01
  -5.4434776E-02  -3.5651112E-01   4.6773529E-01
  -3.0839920E-02  -3.5798550E-01   4.6935534E-01
  -1.3321877E-02  -3.5559320E-01   4.7344160E-01
  -9.2361574E+00  -7.8115946E-01   3.3255486E+00
  -9.5606775E+00  -8.0092388E-01   3.4065092E+00
  -9.8955879E+00  -8.2187760E-01   3.4876416E+00
  -1.0241306E+01  -8.4415984E-01   3.5687101E+00
  -1.0598301E+01  -8.6792946E-01   3.6494527E+00
  -1.0967108E+01  -8.9336646E-01   3.7295794E+00
  -1.1348333E+01  -9.2067546E-01   3.8087637E+00
  -1.1742670E+01  -9.5008862E-01   3.8866401E+00
  -1.2150900E+01  -9.8186928E-01   3.9627924E+00
  -1.2573913E+01  -1.0163159E+00   4.0367465E+00
  -1.3012709E+01  -1.0537666E+00   4.1079583E+00
  -1.3468412E+01  -1.0946046E+00   4.1757979E+00
  -1.3942278E+01  -1.1392640E+00   4.2395372E+00
  -1.4435698E+01  -1.1882356E+00   4.2983303E+00
  -1.4950206E+01  -1.2420760E+00   4.3511930E+00
  -1.5487479E+01  -1.3014150E+00   4.3969865E+00
  -1.6049341E+01  -1.3669653E+00   4.4343905E+00
  -1.6637747E+01  -1.4395351E+00   4.4618859E+00
  -1.7254787E+01  -1.5200405E+00   4.4777341E+00
  -1.7902674E+01  -1.6095222E+00   4.4799566E+00
  -1.8583733E+01  -1.7091644E+00   4.4663215E+00
  -1.9300386E+01  -1.8203188E+00   4.4343252E+00
  -2.0055161E+01  -1.9445345E+00   4.3811831E+00
  -2.0850676E+01  -2.0835953E+00   4.3038111E+00
  -2.1689648E+01  -2.2395637E+00   4.1988049E+00
  -2.2574907E+01  -2.4148514E+00   4.0624089E+00
  -2.3509390E+01  -2.6122792E+00   3.8904645E+00
  -2.4496141E+01  -2.8351805E+00   3.6783438E+00
  -2.5538298E+01  -3.0875161E+00   3.4208612E+00
  -2.6639017E+01  -3.3740232E+00   3.1121821E+00
  -2.7801405E+01  -3.7003970E+00   2.7457223E+00
  -2.9028376E+01  -4.0735230E+00   2.3140578E+00
  -3.0322510E+01  -4.5017691E+00   1.8088611E+00
  -3.1685894E+01  -4.9953547E+00   1.2208151E+00
  -3.3119934E+01  -5.5668077E+00   5.3948355E-01
  -3.4625080E+01  -6.2315078E+00  -2.4696350E-01
  -3.6200371E+01  -7.0082841E+00  -1.1522523E+00
  -3.7842396E+01  -7.9199667E+00  -2.1927841E+00
  -3.9543343E+01  -8.9936953E+00  -3.3886006E+00
  -4.1287605E+01  -1.0260614E+01  -4.7641721E+00
  -4.3046356E+01  -1.1754372E+01  -6.3481989E+00
  -4.4770176E+01  -1.3507602E+01  -8.1710453E+00
  -4.6380650E+01  -1.5545437E+01  -1.0258032E+01
  -4.7763618E+01  -1.7875250E+01  -1.2616875E+01
  -4.8768684E+01  -2.0472576E+01  -1.5218781E+01
  -4.9221313E+01  -2.3265297E+01  -1.7975498E+01
  -4.8953068E+01  -2.6120510E+01  -2.0718918E+01
  -4.7850552E+01  -2.8842073E+01  -2.3194389E+01
  -4.5913803E+01  -3.1187271E+01  -2.5080254E+01
  -4.3302406E+01  -3.2906631E+01  -2.6039827E+01
  -4.0342396E+01  -3.3799973E+01  -2.5796812E+01
  -3.7477791E+01  -3.3769779E+01  -2.4207924E+01
  -3.5176754E+01  -3.2848518E+01  -2.1300329E+01
  -3.3828178E+01  -3.1186607E+01  -1.7255322E+01
  -2.3834991E-01  -2.9603577E-01   5.4309273E-01
  -1.8997383E-01  -3.3740425E-01   4.9906349E-01
  -1.3964558E-01  -3.6336136E-01   4.7193241E-01
  -9.4049454E-02  -3.7633610E-01   4.5878029E-01
  -5.6577682E-02  -3.7976265E-01   4.5554972E-01
  -2.8105736E-02  -3.7697124E-01   4.5842648E-01
  -7.8630447E-03  -3.7067461E-01   4.6439195E-01
  -9.2754755E+00  -7.0244318E-01   3.3370810E+00
  -9.6018496E+00  -7.1910584E-01   3.4175889E+00
  -9.9387655E+00  -7.3677975E-01   3.4981940E+00
  -1.0286659E+01  -7.5558299E-01   3.5786569E+00
  -1.0646020E+01  -7.7565008E-01   3.6587117E+00
  -1.1017408E+01  -7.9713374E-01   3.7380638E+00
  -1.1401457E+01  -8.2020766E-01   3.8163826E+00
  -1.1798888E+01  -8.4506881E-01   3.8932967E+00
  -1.2210522E+01  -8.7194091E-01   3.9683840E+00
  -1.2637281E+01  -9.0107763E-01   4.0411625E+00
  -1.3080215E+01  -9.3276703E-01   4.1110773E+00
  -1.3540499E+01  -9.6733564E-01   4.1774869E+00
  -1.4019440E+01  -1.0051539E+00   4.2396474E+00
  -1.4518499E+01  -1.0466417E+00   4.2966928E+00
  -1.5039284E+01  -1.0922757E+00   4.3476162E+00
  -1.5583553E+01  -1.1425964E+00   4.3912449E+00
  -1.6153227E+01  -1.1982174E+00   4.4262228E+00
  -1.6750368E+01  -1.2598360E+00   4.4509835E+00
  -1.7377193E+01  -1.3282448E+00   4.4637289E+00
  -1.8036057E+01  -1.4043474E+00   4.4624124E+00
  -1.8729446E+01  -1.4891759E+00   4.4447136E+00
  -1.9459982E+01  -1.5839136E+00   4.4080286E+00
  -2.0230417E+01  -1.6899225E+00   4.3494458E+00
  -2.1043640E+01  -1.8087790E+00   4.2657290E+00
  -2.1902683E+01  -1.9423167E+00   4.1532845E+00
  -2.2810778E+01  -2.0926921E+00   4.0081253E+00
  -2.3771332E+01  -2.2624459E+00   3.8258002E+00
  -2.4787970E+01  -2.4546015E+00   3.6013098E+00
  -2.5864540E+01  -2.6727829E+00   3.3289969E+00
  -2.7005075E+01  -2.9213600E+00   3.0024145E+00
  -2.8213772E+01  -3.2056425E+00   2.6141839E+00
  -2.9494877E+01  -3.5321202E+00   2.1558471E+00
  -3.0852655E+01  -3.9087837E+00   1.6177095E+00
  -3.2291286E+01  -4.3455272E+00   9.8862231E-01
  -3.3814781E+01  -4.8546753E+00   2.5566721E-01
  -3.5426830E+01  -5.4516263E+00  -5.9641123E-01
  -3.7130325E+01  -6.1556025E+00  -1.5861064E+00
  -3.8926300E+01  -6.9904337E+00  -2.7364824E+00
  -4.0811592E+01  -7.9851780E+00  -4.0768399E+00
  -4.2774616E+01  -9.1742401E+00  -5.6442237E+00
  -4.4788429E+01  -1.0596343E+01  -7.4838390E+00
  -4.6800720E+01  -1.2291411E+01  -9.6464434E+00
  -4.8721806E+01  -1.4294188E+01  -1.2180257E+01
  -5.0413261E+01  -1.6623171E+01  -1.5114639E+01
  -5.1683643E+01  -1.9264645E+01  -1.8433933E+01
  -5.2299599E+01  -2.2152821E+01  -2.2043507E+01
  -5.2022217E+01  -2.5151600E+01  -2.5736532E+01
  -5.0672058E+01  -2.8047123E+01  -2.9177692E+01
  -4.8212852E+01  -3.0563492E+01  -3.1924984E+01
  -4.4823051E+01  -3.2408562E+01  -3.3502575E+01
  -4.0913486E+01  -3.3343479E+01  -3.3514412E+01
  -3.7062664E+01  -3.3251255E+01  -3.1757545E+01
  -3.3882591E+01  -3.2172607E+01  -2.8281645E+01
  -3.1870197E+01  -3.0290215E+01  -2.3362789E+01
  -2.3491087E+01  -2.0933893E+01  -1.2882175E+01
  -2.2150612E-01  -3.8344002E-01   4.8804283E-01
  -1.5572548E-01  -4.0368938E-01   4.5369816E-01
  -9.8486900E-02  -4.0989017E-01   4.3880844E-01
  -5.3337097E-02  -4.0660381E-01   4.3702984E-01
  -2.0512581E-02  -3.9779568E-01   4.4279432E-01
   1.6698837E-03  -3.8648844E-01   4.5198250E-01
  -9.3090534E+00  -6.2205827E-01   3.3477342E+00
  -9.6369915E+00  -6.3546968E-01   3.4278972E+00
  -9.9756002E+00  -6.4970124E-01   3.5080960E+00
  -1.0325326E+01  -6.6484874E-01   3.5880880E+00
  -1.0686680E+01  -6.8102109E-01   3.6676047E+00
  -1.1060239E+01  -6.9834208E-01   3.7463470E+00
  -1.1446660E+01  -7.1695268E-01   3.8239813E+00
  -1.1846688E+01  -7.3701257E-01   3.9001312E+00
  -1.2261175E+01  -7.5870359E-01   3.9743690E+00
  -1.2691076E+01  -7.8223211E-01   4.0462060E+00
  -1.3137478E+01  -8.0783218E-01   4.1150794E+00
  -1.3601595E+01  -8.3576989E-01   4.1803370E+00
  -1.4084786E+01  -8.6634743E-01   4.2412214E+00
  -1.4588566E+01  -8.9990795E-01   4.2968507E+00
  -1.5114602E+01  -9.3684131E-01   4.3461957E+00
  -1.5664730E+01  -9.7759062E-01   4.3880591E+00
  -1.6240944E+01  -1.0226599E+00   4.4210515E+00
  -1.6845407E+01  -1.0726230E+00   4.4435658E+00
  -1.7480438E+01  -1.1281345E+00   4.4537559E+00
  -1.8148514E+01  -1.1899422E+00   4.4495139E+00
  -1.8852266E+01  -1.2589034E+00   4.4284482E+00
  -1.9594490E+01  -1.3360041E+00   4.3878636E+00
  -2.0378128E+01  -1.4223841E+00   4.3247428E+00
  -2.1206314E+01  -1.5193685E+00   4.2357163E+00
  -2.2082371E+01  -1.6285059E+00   4.1170273E+00
  -2.3009876E+01  -1.7516270E+00   3.9644842E+00
  -2.3992670E+01  -1.8909010E+00   3.7733784E+00
  -2.5034914E+01  -2.0489266E+00   3.5383830E+00
  -2.6141108E+01  -2.2288377E+00   3.2534146E+00
  -2.7316118E+01  -2.4344456E+00   2.9114780E+00
  -2.8565151E+01  -2.6704175E+00   2.5044682E+00
  -2.9893774E+01  -2.9425139E+00   2.0229728E+00
  -3.1307888E+01  -3.2579010E+00   1.4560096E+00