<?xml version="1.0"?>
<VTKFile type="StructuredGrid" version="0.1" byte_order="LittleEndian" header_type="UInt32" compressor="vtkZLibDataCompressor">
  <StructuredGrid WholeExtent="0 60 0 20 0 20">
  <Piece Extent="0 60 0 20 0 20">
    <PointData Vectors="B_total">
      <DataArray type="Float32" Name="B_total" NumberOfComponents="3" format="ascii" RangeMin="0" RangeMax="62264.841059927196">
        -9.952293 -1.4190317 3.2075944 -10.288075 -1.4579322 3.2945275
        -10.632994 -1.4983759 3.382135 -10.987281 -1.5405383 3.4701264
        -11.351206 -1.5846218 3.5581732 -11.725084 -1.6308594 3.645904
        -12.109284 -1.6795175 3.7328997 -12.504236 -1.7309005 3.818686
        -12.910433 -1.7853539 3.9027267 -13.328444 -1.8432696 3.9844155
        -13.758921 -1.9050903 4.063066 -14.202598 -1.9713144 4.1379004
        -14.660299 -2.0425022 4.20804 -15.132937 -2.1192825 4.272492
        -15.621517 -2.2023585 4.3301344 -16.127127 -2.292518 4.3797083
        -16.650928 -2.3906398 4.419804 -17.194155 -2.4977074 4.4488525
        -17.758087 -2.6148193 4.4651165 -18.34403 -2.743206 4.4666915
        -18.953304 -2.8842483 4.451503 -19.587196 -3.0394983 4.417312
        -20.246946 -3.2107098 4.3617277 -20.933704 -3.399869 4.282217
        -21.648487 -3.6092353 4.176123 -22.392134 -3.8413904 4.040676
        -23.165234 -4.0992928 3.8730333 -23.968046 -4.3863416 3.6702707
        -24.800383 -4.7064486 3.4294376 -25.661455 -5.064118 3.1476047
        -26.549673 -5.464534 2.8219566 -27.462406 -5.913645 2.4499393
        -28.395702 -6.4182525 2.029475 -29.344002 -6.9860764 1.5592674
        -30.299837 -7.625779 1.0391741 -31.253553 -8.346907 0.47063908
        -32.193054 -9.159661 -0.14285466 -33.10356 -10.074423 -0.79534775
        -33.96738 -11.100853 -1.4779927 -34.763638 -12.246408 -2.1786296
        -35.468082 -13.514132 -2.881213 -36.053173 -14.899593 -3.5648878
        -36.488857 -16.387117 -4.202484 -36.74486 -17.945686 -4.758393
        -36.795258 -19.525505 -5.186186 -36.625816 -21.056396 -5.426937
        -36.24369 -22.449696 -5.409612 -35.687572 -23.604744 -5.0548234
        -35.035122 -24.420042 -4.282336 -18.591486 -13.603023 -1.4951792
        -0.055066705 -0.5052433 0.2753935 -0.020165443 -0.5119591 0.26890135
        0.015244484 -0.5102215 0.2714424 0.04773569 -0.50061035 0.2823348
        0.07463932 -0.4846716 0.29988027 0.09444046 -0.4645071 0.32183838
        0.10681248 -0.44229698 0.34589505 0.11237812 -0.41993856 0.37005603
        0.11234236 -0.39884043 0.3928362 0.10813236 -0.37988138 0.41331062
        0.1011405 -0.36348677 0.4310383 -9.99364 -1.3217503 3.1999216
        -10.331013 -1.3574604 3.2851346 -10.677696 -1.3945961 3.3708708
        -11.033952 -1.4333197 3.456836 -11.400076 -1.4738183 3.542697
        -11.776421 -1.5163075 3.628079 -12.163389 -1.5610342 3.7125576
        -12.561452 -1.6082802 3.7956545 -12.97115 -1.6583664 3.8768284
        -13.393103 -1.7116568 3.9554663 -13.828013 -1.7685632 4.030874
        -14.276675 -1.8295503 4.1022644 -14.739981 -1.8951418 4.168747
        -15.218913 -1.9659263 4.2293124 -15.714556 -2.0425653 4.282821
        -16.228083 -2.1258013 4.32799 -16.760756 -2.2164674 4.36338
        -17.313911 -2.3154998 4.387384 -17.888952 -2.423951 4.3982205
        -18.487324 -2.5430067 4.3939257 -19.110498 -2.6740081 4.372354
        -19.759949 -2.818476 4.3311753 -20.437126 -2.978143 4.2678833
        -21.143427 -3.154992 4.179799 -21.880161 -3.3513045 4.06408
        -22.648514 -3.5697138 3.9177163 -23.449476 -3.8132823 3.7375622
        -24.283785 -4.085571 3.5203094 -25.151802 -4.3907433 3.2625203
        -26.05339 -4.733674 2.9606526 -26.9877 -5.1200747 2.6111236
        -27.952955 -5.5566382 2.2104142 -28.946182 -6.051197 1.7552357
        -29.96289 -6.61287 1.2427554 -30.996735 -7.252197 0.670876
        -32.03914 -7.981181 0.038547695 -33.07882 -8.813179 -0.6539134
        -34.101227 -9.762499 -1.4044969 -35.087734 -10.8435 -2.209125
        -36.014626 -12.068981 -3.0610728 -36.85195 -13.447595 -3.9499497
        -37.562534 -14.980033 -4.8598204 -38.102013 -16.65409 -5.7662
        -38.420937 -18.438885 -6.6317925 -38.470505 -20.279392 -7.4017067
        -38.212822 -22.093021 -7.999589 -37.63542 -23.770601 -8.327167
        -36.767475 -25.184044 -8.269547 -35.692574 -26.201324 -7.7074876
        -34.552002 -26.707027 -6.5349855 -28.113567 -22.3938 -3.8872643
        -0.022953033 -0.5192623 0.19132185 0.021595955 -0.5173893 0.19598007
        0.061924934 -0.50623703 0.21247435 0.09449959 -0.4878292 0.23811865
        0.11746788 -0.4648571 0.26944327 0.13069344 -0.43999195 0.30303717
        0.13531685 -0.41548824 0.336074 0.13315535 -0.39289665 0.3665852
        0.12621689 -0.37309933 0.39345875 0.11632442 -0.35641336 0.41627675
        -10.025623 -1.2189192 3.190317 -10.364284 -1.2512094 3.2739475
        -10.712414 -1.2847966 3.3579712 -11.070296 -1.3198286 3.4420912
        -11.43826 -1.3564764 3.5259717 -11.816683 -1.3949363 3.6092348
        -12.206008 -1.4354339 3.6914546 -12.606741 -1.4782269 3.7721486
        -13.019464 -1.5236087 3.850772 -13.444841 -1.5719124 3.926708
        -13.883631 -1.6235162 3.9992564 -14.336681 -1.678847 4.0676236
        -14.804945 -1.7383869 4.1309094 -15.289474 -1.8026795 4.188092
        -15.791429 -1.8723371 4.238017 -16.312065 -1.9480497 4.2793813
        -16.85274 -2.0305943 4.310719 -17.414894 -2.1208482 4.3303924
        -18.000053 -2.2198029 4.336577 -18.6098 -2.3285823 4.3272576
        -19.245766 -2.448466 4.300219 -19.909615 -2.5809155 4.2530475
        -20.603018 -2.7276103 4.183124 -21.327637 -2.8904889 4.0876274
        -22.085098 -3.0718014 3.963523 -22.876951 -3.274178 3.8075774
        -23.704647 -3.5007029 3.6163223 -24.569462 -3.7550125 3.3860555
        -25.472397 -4.0414114 3.1128283 -26.414074 -4.3650126 2.7924457
        -27.394571 -4.731907 2.420488 -28.413197 -5.149358 1.9923613
        -29.468256 -5.626032 1.5033865 -30.556732 -6.1722445 0.94892323
        -31.673935 -6.800209 0.32450736 -32.813015 -7.524225 -0.3740145
        -33.964294 -8.360725 -1.1503644 -35.114326 -9.328033 -2.0077143
        -36.244442 -10.445569 -2.9484246 -37.32884 -11.732248 -3.9734023
        -38.33215 -13.203644 -5.0806365 -39.20699 -14.867538 -6.262271
        -39.892593 -16.71776 -7.4996963 -40.316162 -18.726397 -8.756449
        -40.39941 -20.835728 -9.96978 -40.072044 -22.951862 -11.043095
        -39.29271 -24.943783 -11.843213 -38.07401 -26.651453 -12.206744
        -36.504227 -27.905031 -11.958584 -34.75548 -28.553642 -10.940865
        -33.069733 -28.49606 -9.044541 -27.427042 -24.017658 -5.373883
        0.02846384 -0.50707436 0.10566807 0.077708244 -0.4954548 0.12959671
        0.11646271 -0.47593975 0.16579008 0.14256382 -0.4517231 0.20910358
        0.15623093 -0.4259348 0.25464416 0.1592884 -0.40105915 0.29851055
        0.15436745 -0.378695 0.33820462 0.14415169 -0.35963297 0.37248042
        0.1309638 -0.3440423 0.40102628 -10.049529 -1.1110342 3.178776
        -10.389214 -1.1397029 3.2609568 -10.738508 -1.1695302 3.3434212
        -11.097718 -1.2006485 3.4258704 -11.467197 -1.2332112 3.5079675
        -11.847353 -1.2673941 3.589333 -12.238657 -1.3033999 3.669539
        -12.641651 -1.34146 3.748102 -13.056955 -1.3818378 3.8244758
        -13.485279 -1.4248335 3.8980396 -13.927423 -1.4707876 3.9680908
        -14.384289 -1.5200856 4.03383 -14.856886 -1.573163 4.09435
        -15.346332 -1.6305134 4.14862 -15.853854 -1.6926926 4.1954737
        -16.38079 -1.7603297 4.2335896 -16.92859 -1.8341359 4.2614827
        -17.498795 -1.9149171 4.277485 -18.093044 -2.0035884 4.279736
        -18.71306 -2.1011934 4.2661724 -19.360636 -2.2089257 4.234518
        -20.037617 -2.3281593 4.1822767 -20.745905 -2.4604836 4.106726
        -21.487429 -2.6077466 4.0049057 -22.264143 -2.7721124 3.8736014
        -23.077991 -2.956134 3.7093472 -23.930902 -3.1628313 3.5083635
        -24.82473 -3.3958054 3.2665513 -25.761192 -3.6593666 2.9794388
        -26.74177 -3.958701 2.6421554 -27.767597 -4.3000693 2.2493966
        -28.83927 -4.6910577 1.7954084 -29.95665 -5.140867 1.2739794
        -31.118578 -5.660659 0.67842805 -32.32254 -6.2639217 0.0015542358
        -33.56408 -6.9668217 -0.76446223 -34.836014 -7.788454 -1.6282392
        -36.12704 -8.750807 -2.5993779 -37.41969 -9.878225 -3.688473
        -38.687294 -11.195955 -4.9065533 -39.890053 -12.72729 -6.2632914
        -40.97056 -14.488701 -7.763006 -41.8503 -16.482576 -9.39757
        -42.429333 -18.687393 -11.135616 -42.59275 -21.04646 -12.90891
        -42.227448 -23.457706 -14.59884 -41.25084 -25.769398 -16.028961
        -39.648342 -27.787432 -16.971191 -37.508965 -29.2987 -17.171925
        -35.042534 -30.109386 -16.39732 -32.563286 -30.088757 -14.486237
        -30.43643 -29.202005 -11.39006 -16.524925 -15.894308 -4.0925674
        0.093206406 -0.4593029 0.037991524 0.13831902 -0.44151497 0.08689308
        0.167346 -0.41921902 0.14441872 0.18097878 -0.39571095 0.20379066
        0.18197632 -0.3735113 0.2599392 0.17387581 -0.3541088 0.30976248
        0.16013432 -0.33813 0.3519628 0.14356136 -0.32556295 0.38647765
        -10.066738 -0.9986124 3.1658266 -10.407223 -1.0234818 3.2466972
        -10.757441 -1.0493627 3.327761 -11.117716 -1.076371 3.4087174
        -11.488427 -1.1046411 3.4892302 -11.870006 -1.1343274 3.5689182
        -12.262949 -1.1656076 3.647354 -12.667831 -1.1986847 3.7240534
        -13.085308 -1.2337904 3.7984686 -13.516125 -1.2711886 3.8699784
        -13.961125 -1.3111793 3.9378774 -14.421258 -1.3541021 4.0013633
        -14.897584 -1.4003425 4.059523 -15.391278 -1.4503365 4.1113205
        -15.903635 -1.5045782 4.155577 -16.436066 -1.563627 4.19096
        -16.9901 -1.6281179 4.2159643 -17.567379 -1.6987725 4.228898
        -18.169653 -1.7764148 4.2278695 -18.79877 -1.8619871 4.210772
        -19.45668 -1.9565744 4.1752734 -20.145414 -2.061432 4.1188045
        -20.867088 -2.1780195 4.0385437 -21.623901 -2.308048 3.9314032
        -22.418127 -2.4535332 3.7939982 -23.252115 -2.6168728 3.6226368
        -24.128275 -2.8009264 3.4132445 -25.04906 -3.0091336 3.1613305
        -26.016933 -3.2456527 2.8619092 -27.034304 -3.5155408 2.509431
        -28.103447 -3.8249784 2.0976882 -29.226389 -4.181548 1.6197267
        -30.404755 -4.5945854 1.0677142 -31.639565 -5.075593 0.4327669
        -32.930904 -5.6387224 -0.29532242 -34.277367 -6.301276 -1.1284946
        -35.67507 -7.08416 -2.0809796 -37.11603 -8.012135 -3.1699324
        -38.58537 -9.11358 -4.415887 -40.057213 -10.41938 -5.842519
        -41.488945 -11.960295 -7.4747405 -42.814323 -13.762039 -9.333813
        -43.936928 -15.837276 -11.427895 -44.72693 -18.17404 -13.736818
        -45.02622 -20.721222 -16.191448 -44.667755 -23.373964 -18.651415
        -43.513195 -25.964607 -20.889277 -41.506634 -28.267654 -22.594036
        -38.730366 -30.026163 -23.405691 -35.437397 -31.000181 -22.983238
        -32.03431 -31.025486 -21.089287 -29.005957 -30.059822 -17.65736
        -26.804169 -28.194595 -12.807989 0.10491943 -0.3884411 -0.052444458
        0.15606117 -0.37714958 0.009921074 0.18766785 -0.36184883 0.082407
        0.2010212 -0.34554386 0.15609598 0.19986057 -0.33044338 0.22461987
        0.18870068 -0.31775188 0.28442764 0.17172337 -0.3078847 0.33420646
        0.15219593 -0.30070972 0.37424892 -10.078615 -0.882224 3.152368
        -10.419713 -0.90313905 3.2320833 -10.770649 -0.9249104 3.311918
        -11.131765 -0.9476367 3.3915722 -11.503458 -0.97143203 3.4707088
        -11.886182 -0.9964279 3.5489476 -12.280459 -1.0227754 3.6258607
        -12.68689 -1.0506474 3.7009645 -13.106157 -1.0802417 3.773711
        -13.539042 -1.1117829 3.8434784 -13.986426 -1.1455274 3.90956
        -14.449296 -1.1817657 3.9711514 -14.928761 -1.2208277 4.0273366
        -15.426047 -1.2630876 4.077073 -15.942507 -1.3089701 4.119176
        -16.479616 -1.3589568 4.1523 -17.03898 -1.4135967 4.174926
        -17.622328 -1.4735154 4.185341 -18.231512 -1.5394288 4.181626
        -18.8685 -1.6121603 4.1616364 -19.535378 -1.6926609 4.122992
        -20.234352 -1.7820361 4.063055 -20.967745 -1.8815793 3.978919
        -21.738007 -1.9928137 3.8673766 -22.547718 -2.1175437 3.7248883
        -23.39961 -2.2579324 3.547553 -24.296568 -2.4165745 3.3310223
        -25.241636 -2.5966148 3.0704358 -26.238012 -2.8018887 2.7603207
        -27.289038 -3.0371017 2.3944714 -28.398159 -3.3080602 1.9658037
        -29.568893 -3.6219692 1.4661717 -30.804737 -3.9878054 0.88611007
        -32.10907 -4.4167795 0.21448566 -33.484875 -4.9228916 -0.5620409
        -34.934235 -5.5235405 -1.4597737 -36.45729 -6.2401714 -2.4990058
        -38.05034 -7.0987635 -3.705226 -39.702488 -8.129962 -5.110219
        -41.390453 -9.3684 -6.7523985 -43.070946 -10.850533 -8.675155
        -44.670948 -12.610065 -10.921366 -46.077385 -14.669829 -13.5217
        -47.12971 -17.029184 -16.474445 -47.622032 -19.646975 -19.716345
        -47.32357 -22.422663 -23.088234 -46.0256 -25.182041 -26.306566
        -43.614777 -27.6782 -28.960035 -40.156116 -29.618946 -30.552563
        -35.94835 -30.723717 -30.600357 -31.50932 -30.797031 -28.761127
        -27.47343 -29.788702 -24.94148 -24.432205 -27.810263 -19.325989
        -22.787327 -25.097473 -12.308185 0.16370583 -0.27823257 -0.05116272
        0.19761276 -0.2767477 0.03399563 0.21097183 -0.27396774 0.11975765
        0.20837593 -0.27138996 0.19853354 0.19516087 -0.26979542 0.2663474
        0.17609501 -0.26942396 0.32205224 0.15475559 -0.27014303 0.36624765
        -10.086419 -0.7624944 3.1394851 -10.427974 -0.7793233 3.218219
        -10.779453 -0.79684603 3.297015 -11.141215 -0.8151429 3.375573
        -11.513671 -0.8343069 3.4535556 -11.897292 -0.85444516 3.5305843
        -12.292624 -0.87568074 3.606231 -12.700286 -0.89815474 3.6800127
        -13.120989 -0.92202824 3.7513819 -13.55554 -0.9474852 3.8197172
        -14.00485 -0.9747346 3.8843107 -14.469945 -1.0040146 3.9443572
        -14.951969 -1.0355952 3.9989378 -15.452193 -1.0697834 4.047006
        -15.972019 -1.1069286 4.0873713 -16.512981 -1.1474272 4.1186795
        -17.07675 -1.1917324 4.1393986 -17.665127 -1.2403617 4.1478
        -18.280054 -1.2939095 4.1419396 -18.923603 -1.353061 4.1196423
        -19.597986 -1.4186112 4.0784855 -20.30556 -1.4914868 4.0157747
        -21.048832 -1.5727769 3.9285266 -21.830473 -1.66377 3.8134327
        -22.653349 -1.7659992 3.666815 -23.520533 -1.8813126 3.484591
        -24.435345 -2.0119386 3.262164 -25.401375 -2.160595 2.9943457
        -26.422512 -2.3306172 2.675221 -27.502974 -2.5261278 2.2979875
        -28.647333 -2.7522545 1.8547488 -29.860544 -3.015417 1.3362442
        -31.147953 -3.3236904 0.7314655 -32.515293 -3.6872702 0.02711545
        -33.96852 -4.1190386 -0.7931944 -35.51338 -4.635234 -1.7500849
        -37.15438 -5.256177 -2.869945 -38.892727 -6.0069494 -4.1868005
        -40.722565 -6.9178257 -5.7442183 -42.62473 -8.024025 -7.5964518
        -44.557396 -9.3641815 -9.807398 -46.44342 -10.976462 -12.444943
        -48.155724 -12.891102 -15.56741 -49.504646 -15.117916 -19.198418
        -50.23542 -17.62831 -23.28817 -50.04795 -20.333752 -27.664476
        -48.65207 -23.0671 -31.98707 -45.862686 -25.578976 -35.732758
        -41.715607 -27.563253 -38.244724 -36.55375 -28.718126 -38.864124
        -31.019276 -28.829407 -37.116123 -25.919706 -27.841516 -32.87111
        -22.009075 -25.877869 -26.391705 -19.7861 -23.197716 -18.23346
        -0.90933037 -1.2325897 -0.5658264 0.1901741 -0.16662312 0.013082504
        0.20474243 -0.18390274 0.10473251 0.20259094 -0.19920444 0.18853283
        0.18948174 -0.2128315 0.26014233 0.17045403 -0.22496128 0.31848574
        0.14925289 -0.23568821 0.36437702 -10.091233 -0.6400881 3.1282732
        -10.433115 -0.65272325 3.20622 -10.784989 -0.66588354 3.2841852
        -11.147226 -0.6796302 3.3618696 -11.520249 -0.69403386 3.4389362
        -11.904544 -0.7091763 3.5150068 -12.300672 -0.72515124 3.5896542
        -12.709269 -0.7420662 3.662396 -13.131067 -0.76004416 3.7326846
        -13.566896 -0.7792256 3.7998996 -14.017692 -0.79977006 3.8633327
        -14.484504 -0.8218598 3.922178 -14.968513 -0.84570146 3.975515
        -15.471024 -0.8715307 4.022294 -15.993475 -0.89961493 4.061319
        -16.537449 -0.9302595 4.09123 -17.104668 -0.96381336 4.110486
        -17.696997 -1.0006759 4.1173434 -18.316448 -1.0413066 4.10984
        -18.96518 -1.0862371 4.085776 -19.64551 -1.1360849 4.042693
        -20.359915 -1.1915729 3.977852 -21.111057 -1.2535529 3.888206
        -21.901798 -1.3230339 3.7703578 -22.735233 -1.401228 3.6205313
        -23.61473 -1.4895914 3.434476 -24.543983 -1.5898938 3.2073965
        -25.52704 -1.7043017 2.9338272 -26.56839 -1.8354868 2.6074796
        -27.673018 -1.9867685 2.221044 -28.846481 -2.1623 1.7659259
        -30.095007 -2.3673143 1.2318988 -31.425621 -2.6084447 0.6066041
        -32.846188 -2.8941274 -0.12516983 -34.36542 -3.2351227 -0.98254293
        -35.992516 -3.6451316 -1.9900441 -37.736237 -4.1415052 -3.1796584
        -39.602722 -4.7459583 -4.593379 -41.59147 -5.485155 -6.285946
        -43.688297 -6.390794 -8.326981 -45.85442 -7.4986687 -10.800771
        -48.011116 -8.8457775 -13.800924 -50.020775 -10.464156 -17.415457
        -51.66881 -12.369963 -21.697306 -52.655235 -14.546824 -26.616158
        -52.612053 -16.924652 -31.993742 -51.16509 -19.3595 -37.438488
        -48.05041 -21.626383 -42.314896 -43.26557 -23.440155 -45.796265
        -37.1916 -24.513205 -47.0323 -30.596073 -24.638062 -45.399624
        -24.466934 -23.760052 -40.72613 -19.728283 -21.99939 -33.35993
        -16.977652 -19.607294 -24.034403 -16.371136 -16.881582 -13.606682
        0.1591587 -0.04245472 0.03336525 0.17715836 -0.08427143 0.12041569
        0.17850685 -0.12094688 0.20078087 0.16875458 -0.15229797 0.26971817
        0.15281773 -0.17860985 0.32591248 0.13437366 -0.20041466 0.37011552
        -10.093924 -0.51568663 3.1197002 -10.436023 -0.5240463 3.1970716
        -10.788163 -0.53275734 3.2744312 -11.150723 -0.5418611 3.3514805
        -11.524134 -0.55140543 3.4278827 -11.908895 -0.5614454 3.5032594
        -12.305574 -0.57204455 3.5771847 -12.714828 -0.58327574 3.6491766
        -13.137395 -0.59522206 3.7186882 -13.574124 -0.6079786 3.7850986
        -14.025969 -0.6216538 3.8476999 -14.494 -0.6363711 3.9056857
        -14.97942 -0.652271 3.9581342 -15.483559 -0.6695133 4.003993
        -16.007887 -0.6882806 4.0420647 -16.554018 -0.70878065 4.0709825
        -17.123713 -0.7312513 4.0891986 -17.718882 -0.7559659 4.0949597
        -18.34159 -0.78323877 4.08629 -18.994062 -0.8134343 4.0609703
        -19.678692 -0.84697676 4.0165176 -20.398046 -0.88436353 3.9501576
        -21.154907 -0.926182 3.858797 -21.952272 -0.9731288 3.7389755
        -22.793419 -1.0260441 3.5868316 -23.681934 -1.0859377 3.3980007
        -24.62179 -1.154041 3.1675322 -25.617397 -1.2318647 2.8897526
        -26.6737 -1.3212765 2.5580869 -27.796274 -1.4246056 2.1648374
        -28.991453 -1.5447738 1.7008744 -30.266472 -1.6854789 1.1552215
        -31.629658 -1.8514234 0.5144653 -33.090607 -2.0486217 -0.23811129
        -34.660255 -2.2847834 -1.1237888 -36.350643 -2.5697842 -2.1702254
        -38.174076 -2.9162273 -3.4139273 -40.140934 -3.3400202 -4.9033885
        -42.25547 -3.8609066 -6.7026014 -44.508247 -4.502684 -8.894097
        -46.864006 -5.292728 -11.579651 -49.24415 -6.260103 -14.875406
        -51.504242 -7.4312925 -18.896278 -53.410805 -8.822151 -23.723038
        -54.627426 -10.425234 -29.3462 -54.728683 -12.192805 -35.5872
        -53.266357 -14.019798 -42.0141 -49.903645 -15.73595 -47.894306
        -44.59881 -17.120506 -52.248077 -37.761433 -17.947208 -54.047554
        -30.268192 -18.050638 -52.528954 -23.268444 -17.38664 -47.478973
        -17.838696 -16.051813 -39.3256 -14.662859 -14.246896 -28.968184
        -13.898819 -12.206966 -17.448204 0.10197258 0.07626152 0.10308266
        0.12615013 0.010160923 0.17217827 0.13472939 -0.04751587 0.23855591
        0.13214493 -0.0960865 0.29697895 0.12274361 -0.1360035 0.34542942
        0.10995674 -0.16829038 0.38400865 -10.095123 -0.389971 3.1145103
        -10.437342 -0.39400026 3.1915326 -10.789631 -0.39820364 3.2685256
        -11.152373 -0.40260214 3.3451903 -11.526007 -0.40722007 3.42119
        -11.911036 -0.41208547 3.4961479 -12.308037 -0.41723073 3.569637
        -12.71767 -0.42269292 3.6411762 -13.140691 -0.42851448 3.710219
        -13.57795 -0.43474403 3.7761445 -14.030413 -0.4414369 3.838245
        -14.499166 -0.44865632 3.8957129 -14.985422 -0.4564742 3.9476259
        -15.490529 -0.46497267 3.9929314 -16.015974 -0.47424528 4.030428
        -16.56339 -0.48439887 4.0587473 -17.134565 -0.49555594 4.076336
        -17.731434 -0.5078571 4.081435 -18.356098 -0.5214646 4.07206
        -19.010818 -0.5365664 4.04598 -19.698032 -0.5533816 4.000695
        -20.420372 -0.5721673 3.9334104 -21.180681 -0.593227 3.841002
        -21.982052 -0.6169206 3.719972 -22.827866 -0.6436835 3.5664043
        -23.721853 -0.67403704 3.3758633 -24.668154 -0.70861703 3.1433017
        -25.671408 -0.7482042 2.8629131 -26.736841 -0.7937609 2.5279465
        -27.870405 -0.8464868 2.1304574 -29.07891 -0.90788645 1.6609777
        -30.370232 -0.9798589 1.1080601 -31.75354 -1.0648198 0.45762107
        -33.239525 -1.1658516 -0.30801484 -34.84055 -1.2869036 -1.2115126
        -36.570507 -1.4330337 -2.2825341 -38.444008 -1.6106887 -3.5605073
        -40.474262 -1.8280149 -5.0981436 -42.66875 -2.0951326 -6.965499
        -45.021336 -2.424264 -9.25362 -47.499443 -2.829522 -12.075949
        -50.025127 -3.3259997 -15.563872 -52.45022 -3.9276469 -19.850843
        -54.52969 -4.643176 -25.03731 -55.903713 -5.469491 -31.129387
        -56.108974 -6.382715 -37.950375 -54.64701 -7.3287964 -45.042862
        -51.13015 -8.218807 -51.60909 -45.487534 -8.936561 -56.56338
        -38.146317 -9.363208 -58.753048 -30.05695 -9.410746 -57.314613
        -22.479977 -9.055336 -52.005177 -16.596645 -8.349807 -43.30978
        -13.14901 -7.4025216 -32.245586 -12.294153 -6.3386793 -19.9831
        0.022262573 0.16542864 0.21964645 0.054912567 0.08170891 0.2578888
        0.073898315 0.008485079 0.3001976 0.08180618 -0.05300343 0.3406248
        0.08196449 -0.10322154 0.37602854 0.07737064 -0.14349556 0.4053383
        -10.095209 -0.2636135 3.1131697 -10.437458 -0.2632853 3.1900783
        -10.789787 -0.26295212 3.266951 -11.15258 -0.2626144 3.3434892
        -11.526278 -0.26227272 3.4193568 -11.911385 -0.2619276 3.4941761
        -12.30848 -0.26157987 3.5675209 -12.718229 -0.2612306 3.6389093
        -13.141386 -0.2608808 3.7077959 -13.578806 -0.26053193 3.7735586
        -14.031462 -0.26018572 3.83549 -14.50044 -0.259844 3.8927827
        -14.986958 -0.25950924 3.9445136 -15.492368 -0.2591842 3.9896293
        -16.018166 -0.25887206 4.026927 -16.56599 -0.25857675 4.055039
        -17.137634 -0.25830278 4.0724072 -17.735046 -0.25805527 4.077272
        -18.360334 -0.2578402 4.067645 -19.015774 -0.25766462 4.041291
        -19.70382 -0.25753656 3.995704 -20.427118 -0.25746486 3.9280806
        -21.18854 -0.25745943 3.8352869 -21.9912 -0.25753006 3.7138107
        -22.838524 -0.2576909 3.5597162 -23.734278 -0.2579526 3.368543
        -24.682661 -0.25832695 3.1352093 -25.688383 -0.25882325 2.8538632
        -26.756767 -0.259448 2.5176914 -27.893879 -0.2601988 2.1186662
        -29.10669 -0.26106313 1.6472063 -30.40327 -0.26200658 1.0917001
        -31.79306 -0.26296374 0.4378436 -33.2871 -0.2638206 -0.33235875
        -34.8982 -0.26438832 -1.2420282 -36.64084 -0.26436934 -2.3214848
        -38.53034 -0.2633083 -3.6111016 -40.5808 -0.26052558 -5.16496
        -42.800682 -0.25503343 -7.0550613 -45.184853 -0.24545543 -9.375175
        -47.701508 -0.22994432 -12.242447 -50.27279 -0.20617183 -15.793053
        -52.749237 -0.17150885 -20.166227 -54.882034 -0.12338188 -25.46849
        -56.30395 -0.060080737 -31.710657 -56.539696 0.018142015 -38.71621
        -55.075127 0.10783291 -46.019196 -51.50685 0.2014493 -52.800884
        -45.75499 0.28715926 -57.94177 -38.252773 0.349414 -60.249752
        -29.975222 0.3775646 -58.830025 -22.217995 0.36877322 -53.43138
        -16.194845 0.32634938 -44.558105 -12.66544 0.25980714 -33.265648
        -11.785852 0.18180156 -20.765804 -0.06931114 0.20428091 0.36731339
        -0.02783966 0.11529762 0.36675453 0.0028800964 0.036414355 0.37842846
        0.022983551 -0.030416787 0.39585304 0.034389496 -0.085295275 0.4145689
        0.039491653 -0.12943982 0.43204618 -10.09431 -0.13727938 3.1158369
        -10.436502 -0.13259476 3.192869 -10.788766 -0.12772617 3.2698712
        -11.151479 -0.12265346 3.3465443 -11.525083 -0.11735339 3.4225514
        -11.91008 -0.1117991 3.497515 -12.307047 -0.10595991 3.571009
        -12.716645 -0.09980062 3.6425507 -13.139625 -0.0932811 3.7115943
        -13.576842 -0.08635555 3.7775183 -14.029262 -0.07897198 3.8396142
        -14.497968 -0.071071066 3.8970745 -14.984172 -0.062585585 3.948976
        -15.489223 -0.053439073 3.9942658 -16.014606 -0.04354441 4.031741
        -16.561958 -0.03280247 4.0600333 -17.13306 -0.021099675 4.077588
        -17.72985 -0.008305987 4.0826445 -18.354425 0.0057289265 4.0732174
        -19.009048 0.021179117 4.047074 -19.696152 0.038247783 4.001713
        -20.41837 0.057174094 3.9343364 -21.178537 0.07824159 3.8418193
        -21.979744 0.10179041 3.7206597 -22.825373 0.12822786 3.566939
        -23.719137 0.15805379 3.3762183 -24.665173 0.1918802 3.143446
        -25.668102 0.23046705 2.8628137 -26.733139 0.27476513 2.5275657
        -27.866203 0.32597515 2.1297584 -29.074078 0.38562512 1.659925
        -30.36459 0.45567882 1.106624 -31.746834 0.5386737 0.45578834
        -33.2314 0.6379111 -0.31021866 -34.830524 0.75769776 -1.2140009
        -36.55791 0.9036565 -2.285111 -38.427887 1.0831015 -3.56278
        -40.45331 1.3054628 -5.0994034 -42.641163 1.5827174 -6.9645104
        -44.984703 1.9296639 -9.248321 -47.450645 2.3638535 -12.062993
        -49.96032 2.9046545 -15.537998 -52.36519 3.5707977 -19.804165
        -54.420605 4.375554 -24.958618 -55.768696 5.318712 -31.003971
        -55.95037 6.375561 -37.761013 -54.47393 7.485421 -44.77297
        -50.95971 8.545424 -51.248302 -45.34279 9.41783 -56.114326
        -38.050987 9.957162 -58.23585 -30.02868 10.056446 -56.765087
        -22.52222 9.68645 -51.46656 -16.697737 8.905971 -42.82072
        -13.288048 7.8400745 -31.830906 -12.448946 6.636301 -19.651253
        -0.15773201 0.18383741 0.52082634 -0.10965157 0.10404849 0.48152924
        -0.068590164 0.031208754 0.4618454 -0.037010193 -0.031948805 0.45526886
        -0.014619827 -0.084777236 0.45631266 0.00016880035 -0.12790227 0.46112704
        -10.0923 -0.011633696 3.1223526 -10.434349 -0.0026219198 3.1997442
        -10.786436 0.0067508933 3.2771225 -11.148939 0.016525263 3.3541884
        -11.52229 0.026747923 3.430605 -11.906986 0.037472762 3.5059938
        -12.303598 0.048761558 3.5799289 -12.712778 0.060685292 3.651926
        -13.135269 0.073324785 3.7214396 -13.571917 0.086772285 3.7878468
        -14.023672 0.10113293 3.85044 -14.49161 0.11652611 3.9084108
        -14.976926 0.13308768 3.9608366 -15.480953 0.15097192 4.0066648
        -16.005161 0.17035466 4.0446944 -16.55116 0.19143634 4.073559
        -17.120712 0.21444568 4.091707 -17.715723 0.23964544 4.0973845
        -18.338257 0.26733804 4.0886116 -18.990538 0.297874 4.0631676
        -19.67495 0.33166152 4.018564 -20.394062 0.36918032 3.952024
        -21.150642 0.4109972 3.8604476 -21.947685 0.45778924 3.7403708
        -22.788456 0.5103681 3.587925 -23.676535 0.56972134 3.3987398
        -24.615864 0.63705534 3.1678572 -25.610836 0.71385884 2.889596
        -26.66636 0.8019845 2.5573778 -27.787962 0.90375656 2.1635017
        -28.981907 1.0221148 1.6988409 -30.255339 1.1608071 1.152432
        -31.616451 1.3246393 0.5108962 -33.07466 1.5198102 -0.24241738
        -34.640644 1.7543354 -1.1286706 -36.32608 2.0385733 -2.1753118
        -38.14276 2.385859 -3.4184828 -40.100418 2.8131838 -4.9060836
        -42.202404 3.3418243 -6.7011456 -44.43817 3.9976788 -8.88467
        -46.77121 4.8108406 -11.556103 -49.121735 5.8136654 -14.828152
        -51.344734 7.0361333 -18.81108 -53.207657 8.497181 -23.579868
        -54.3777 10.190837 -29.119019 -54.43724 12.067884 -35.24599
        -52.950027 14.017432 -41.530376 -49.59327 15.858459 -47.250782
        -44.33584 17.354822 -51.44988 -37.588463 18.263218 -53.12978
        -30.215435 18.405905 -51.55377 -23.341896 17.734818 -46.52109
        -18.018501 16.350422 -38.45221 -14.912767 14.464301 -28.223356
        -14.179672 12.326302 -16.84798 -0.22842216 0.11080647 0.65382767
        -0.17812729 0.052021503 0.58390236 -0.13060188 -0.004796982 0.5381565
        -0.09062004 -0.056326866 0.5108156 -0.059446335 -0.10100698 0.49605656
        -0.03649044 -0.1385653 0.48924255 -10.088803 0.11265156 3.1322517
        -10.43061 0.12593347 3.2102282 -10.782405 0.13974994 3.2882216
        -11.144557 0.15416114 3.365931 -11.51749 0.16923682 3.44302
        -11.90169 0.18505733 3.5191092 -12.297716 0.20171483 3.5937707
        -12.706206 0.2193149 3.6665213 -13.127891 0.2379782 3.7368135
        -13.563596 0.2578422 3.8040245 -14.014259 0.2790634 3.867446
        -14.480931 0.30181974 3.9262695 -14.964787 0.32631347 3.9795737
        -15.467133 0.3527742 4.0263066 -15.989405 0.38146335 4.0652714
        -16.533186 0.41267845 4.095104 -17.100191 0.44675913 4.114261
        -17.692287 0.48409468 4.120995 -18.311481 0.5251326 4.1133413
        -18.959925 0.5703902 4.0890937 -19.639935 0.62046957 4.0457897
        -20.35398 0.6760753 3.9806838 -21.104708 0.7380387 3.8907218
        -21.894976 0.8073483 3.7724996 -22.727861 0.8851884 3.6222305
        -23.606716 0.97299063 3.435656 -24.535198 1.0724989 3.20797
        -25.517328 1.1858549 2.9336982 -26.557543 1.3157094 2.606543
        -27.660757 1.4653714 2.2191916 -28.832436 1.6389989 1.7630556