<?xml version="1.0"?>
<VTKFile type="PolyData" version="0.1" byte_order="LittleEndian" header_type="UInt32" compressor="vtkZLibDataCompressor">
  <PolyData>
    <Piece NumberOfPoints="288" NumberOfVerts="288" NumberOfLines="0" NumberOfStrips="0" NumberOfPolys="0">
      <PointData Scalars="hemisphere">
        <DataArray type="Int32" Name="hemisphere" format="ascii" RangeMin="-1" RangeMax="1">
          1 1 1 1 1 1
          1 1 1 1 1 1
          1 1 1 1 1 1
          1 1 1 1 1 1
          1 1 1 1 1 1
          1 1 1 1 1 1
          1 1 1 1 1 1
          1 1 1 1 1 1
          1 1 1 1 1 1
          1 1 1 1 1 1
          1 1 1 1 1 1
          1 1 1 1 1 1
          1 1 1 1 1 1
          1 1 1 1 1 1
          1 1 1 1 1 1
          1 1 1 1 1 1
          1 1 1 1 1 1
          1 1 1 1 1 1
          1 1 1 1 1 1
          1 1 1 1 1 1
          1 1 1 1 1 1
          1 1 1 1 1 1
          1 1 1 1 1 1
          1 1 1 1 1 1
          -1 -1 -1 -1 -1 -1
          -1 -1 -1 -1 -1 -1
          -1 -1 -1 -1 -1 -1
          -1 -1 -1 -1 -1 -1
          -1 -1 -1 -1 -1 -1
          -1 -1 -1 -1 -1 -1
          -1 -1 -1 -1 -1 -1
          -1 -1 -1 -1 -1 -1
          -1 -1 -1 -1 -1 -1
          -1 -1 -1 -1 -1 -1
          -1 -1 -1 -1 -1 -1
          -1 -1 -1 -1 -1 -1
          -1 -1 -1 -1 -1 -1
          -1 -1 -1 -1 -1 -1
          -1 -1 -1 -1 -1 -1
          -1 -1 -1 -1 -1 -1
          -1 -1 -1 -1 -1 -1
          -1 -1 -1 -1 -1 -1
          -1 -1 -1 -1 -1 -1
          -1 -1 -1 -1 -1 -1
          -1 -1 -1 -1 -1 -1
          -1 -1 -1 -1 -1 -1
          -1 -1 -1 -1 -1 -1
          -1 -1 -1 -1 -1 -1
        </DataArray>
      </PointData>
      <CellData>
      </CellData>
      <Points>
        <DataArray type="Float32" Name="Points" NumberOfComponents="3" format="ascii" RangeMin="1.4999994039133038" RangeMax="1.500000506162692">
          1.054422 0 1.066862 1.029699 0.194114 1.073331
          0.957214 0.375 1.092299 0.841908 0.53033 1.122471
          0.691637 0.649519 1.161793 0.516643 0.724444 1.207585
          0.328852 0.75 1.256725 0.141061 0.724444 1.305865
          -0.033933 0.649519 1.351656 -0.184204 0.53033 1.390978
          -0.29951 0.375 1.42115 -0.371995 0.194114 1.440118
          -0.396718 0 1.446587 -0.371995 -0.194114 1.440118
          -0.29951 -0.375 1.42115 -0.184204 -0.53033 1.390978
          -0.033933 -0.649519 1.351656 0.141061 -0.724444 1.305865
          0.328852 -0.75 1.256725 0.516643 -0.724444 1.207585
          0.691637 -0.649519 1.161793 0.841907 -0.53033 1.122471
          0.957214 -0.375 1.092299 1.029699 -0.194114 1.073331
          0.957427 0 1.154701 0.93653 0.164072 1.160169
          0.875263 0.316964 1.176201 0.777801 0.448254 1.201704
          0.650787 0.548997 1.23494 0.502876 0.612327 1.273645
          0.344148 0.633927 1.31518 0.18542 0.612327 1.356715
          0.037509 0.548997 1.395419 -0.089505 0.448254 1.428656
          -0.186967 0.316964 1.454159 -0.248233 0.164073 1.470191
          -0.26913 0 1.475659 -0.248233 -0.164073 1.470191
          -0.186967 -0.316964 1.454159 -0.089505 -0.448254 1.428656
          0.037509 -0.548997 1.395419 0.18542 -0.612327 1.356715
          0.344148 -0.633927 1.31518 0.502876 -0.612327 1.273645
          0.650787 -0.548997 1.23494 0.777801 -0.448254 1.201704
          0.875263 -0.316964 1.176201 0.93653 -0.164073 1.160169
          0.853144 0 1.233752 0.836233 0.132782 1.238178
          0.78665 0.256515 1.251152 0.707776 0.362767 1.271791
          0.604985 0.444297 1.298689 0.485282 0.495549 1.330012
          0.356825 0.51303 1.363626 0.228368 0.495549 1.39724
          0.108666 0.444297 1.428563 0.005874 0.362767 1.455461
          -0.073 0.256515 1.4761 -0.122582 0.132782 1.489074
          -0.139494 0 1.4935 -0.122582 -0.132782 1.489074
          -0.073 -0.256515 1.4761 0.005874 -0.362767 1.455461
          0.108666 -0.444297 1.428563 0.228368 -0.495549 1.39724
          0.356825 -0.51303 1.363626 0.485282 -0.495549 1.330012
          0.604985 -0.444297 1.298689 0.707776 -0.362767 1.271791
          0.78665 -0.256515 1.251152 0.836233 -0.132782 1.238178
          0.742369 0 1.303414 0.729572 0.100481 1.306763
          0.692051 0.194114 1.316581 0.632364 0.274519 1.332199
          0.554578 0.336216 1.352554 0.463995 0.375 1.376257
          0.366787 0.388229 1.401694 0.269579 0.375 1.427131
          0.178995 0.336216 1.450834 0.101209 0.274519 1.471189
          0.041522 0.194114 1.486807 0.004001 0.100481 1.496625
          -0.008796 0 1.499974 0.004001 -0.100481 1.496625
          0.041522 -0.194114 1.486807 0.101209 -0.274519 1.471189
          0.178995 -0.336216 1.450834 0.269579 -0.375 1.427131
          0.366787 -0.388229 1.401694 0.463995 -0.375 1.376257
          0.554578 -0.336216 1.352554 0.632364 -0.274519 1.332199
          0.692051 -0.194114 1.316581 0.729572 -0.100481 1.306763
          0.625944 0 1.363156 0.617358 0.067415 1.365402
          0.592184 0.130236 1.37199 0.552139 0.184182 1.382469
          0.49995 0.225576 1.396125 0.439176 0.251597 1.412028
          0.373957 0.260472 1.429094 0.308737 0.251597 1.44616
          0.247963 0.225576 1.462064 0.195774 0.184182 1.47572
          0.155729 0.130236 1.486199 0.130555 0.067415 1.492786
          0.121969 0 1.495033 0.130555 -0.067415 1.492786
          0.155729 -0.130236 1.486199 0.195774 -0.184182 1.47572
          0.247963 -0.225576 1.462064 0.308737 -0.251597 1.44616
          0.373957 -0.260472 1.429094 0.439176 -0.251597 1.412028
          0.49995 -0.225576 1.396125 0.552139 -0.184182 1.382469
          0.592184 -0.130236 1.37199 0.617358 -0.067415 1.365402
          0.504756 0 1.412523 0.500446 0.033836 1.413651
          0.487811 0.065367 1.416957 0.467712 0.092443 1.422217
          0.441518 0.113219 1.429071 0.411015 0.126279 1.437053
          0.37828 0.130734 1.445618 0.345546 0.126279 1.454184
          0.315043 0.113219 1.462166 0.288849 0.092443 1.46902
          0.26875 0.065367 1.47428 0.256115 0.033836 1.477586
          0.251805 0 1.478714 0.256115 -0.033836 1.477586
          0.26875 -0.065367 1.47428 0.288849 -0.092443 1.46902
          0.315043 -0.113219 1.462166 0.345546 -0.126279 1.454184
          0.37828 -0.130734 1.445618 0.411015 -0.126279 1.437053
          0.441518 -0.113219 1.429071 0.467712 -0.092443 1.422217
          0.487811 -0.065367 1.416957 0.500446 -0.033836 1.413651
          0.396718 0 -1.446587 0.371995 0.194114 -1.440118
          0.29951 0.375 -1.42115 0.184204 0.53033 -1.390978
          0.033933 0.649519 -1.351656 -0.14106 0.724444 -1.305865
          -0.328852 0.75 -1.256724 -0.516643 0.724444 -1.207585
          -0.691637 0.649519 -1.161793 -0.841908 0.53033 -1.122471
          -0.957214 0.375 -1.092299 -1.029699 0.194114 -1.073331
          -1.054422 0 -1.066862 -1.029699 -0.194114 -1.073331
          -0.957214 -0.375 -1.092299 -0.841908 -0.53033 -1.122471
          -0.691637 -0.649519 -1.161793 -0.516643 -0.724444 -1.207585
          -0.328852 -0.75 -1.256725 -0.141061 -0.724444 -1.305865
          0.033933 -0.649519 -1.351656 0.184204 -0.53033 -1.390978
          0.29951 -0.375 -1.42115 0.371995 -0.194114 -1.440118
          0.26913 0 -1.475659 0.248233 0.164072 -1.470191
          0.186967 0.316964 -1.454159 0.089505 0.448254 -1.428656
          -0.037509 0.548997 -1.395419 -0.18542 0.612327 -1.356715
          -0.344148 0.633927 -1.31518 -0.502876 0.612327 -1.273645
          -0.650787 0.548997 -1.23494 -0.777801 0.448254 -1.201704
          -0.875263 0.316964 -1.176201 -0.93653 0.164073 -1.160169
          -0.957427 0 -1.154701 -0.93653 -0.164073 -1.160169
          -0.875263 -0.316964 -1.176201 -0.777802 -0.448254 -1.201704
          -0.650787 -0.548997 -1.23494 -0.502876 -0.612327 -1.273645
          -0.344148 -0.633927 -1.31518 -0.18542 -0.612327 -1.356715
          -0.037509 -0.548997 -1.395419 0.089505 -0.448254 -1.428656
          0.186967 -0.316964 -1.454159 0.248233 -0.164073 -1.470191
          0.139494 0 -1.4935 0.122582 0.132782 -1.489074
          0.073 0.256515 -1.4761 -0.005874 0.362767 -1.455461
          -0.108666 0.444297 -1.428563 -0.228368 0.495549 -1.39724
          -0.356825 0.51303 -1.363626 -0.485282 0.495549 -1.330012
          -0.604985 0.444297 -1.298689 -0.707776 0.362767 -1.271791
          -0.78665 0.256515 -1.251152 -0.836233 0.132782 -1.238178
          -0.853144 0 -1.233752 -0.836233 -0.132782 -1.238178
          -0.78665 -0.256515 -1.251152 -0.707776 -0.362767 -1.271791
          -0.604985 -0.444297 -1.298689 -0.485282 -0.495549 -1.330012
          -0.356825 -0.51303 -1.363626 -0.228368 -0.495549 -1.39724
          -0.108666 -0.444297 -1.428563 -0.005875 -0.362767 -1.455461
          0.073 -0.256515 -1.4761 0.122582 -0.132782 -1.489074
          0.008796 0 -1.499974 -0.004001 0.100481 -1.496625
          -0.041522 0.194114 -1.486807 -0.101209 0.274519 -1.471189
          -0.178995 0.336216 -1.450834 -0.269579 0.375 -1.427131
          -0.366787 0.388229 -1.401694 -0.463995 0.375 -1.376257
          -0.554578 0.336216 -1.352554 -0.632364 0.274519 -1.332199
          -0.692051 0.194114 -1.316581 -0.729572 0.100481 -1.306763
          -0.742369 0 -1.303414 -0.729572 -0.100481 -1.306763
          -0.692051 -0.194114 -1.316581 -0.632364 -0.274519 -1.332199
          -0.554578 -0.336216 -1.352554 -0.463995 -0.375 -1.376257
          -0.366787 -0.388229 -1.401694 -0.269579 -0.375 -1.427131
          -0.178995 -0.336216 -1.450834 -0.101209 -0.274519 -1.471189
          -0.041522 -0.194114 -1.486807 -0.004001 -0.100481 -1.496625
          -0.121969 0 -1.495033 -0.130555 0.067415 -1.492786
          -0.155729 0.130236 -1.486199 -0.195774 0.184182 -1.47572
          -0.247963 0.225576 -1.462064 -0.308737 0.251597 -1.44616
          -0.373957 0.260472 -1.429094 -0.439176 0.251597 -1.412028
          -0.499951 0.225576 -1.396125 -0.552139 0.184182 -1.382469
          -0.592184 0.130236 -1.37199 -0.617358 0.067415 -1.365402
          -0.625944 0 -1.363156 -0.617358 -0.067415 -1.365402
          -0.592184 -0.130236 -1.37199 -0.552139 -0.184182 -1.382469
          -0.49995 -0.225576 -1.396125 -0.439176 -0.251597 -1.412028
          -0.373957 -0.260472 -1.429094 -0.308737 -0.251597 -1.44616
          -0.247963 -0.225576 -1.462064 -0.195774 -0.184182 -1.47572
          -0.155729 -0.130236 -1.486199 -0.130555 -0.067415 -1.492786
          -0.251805 0 -1.478714 -0.256115 0.033836 -1.477586
          -0.26875 0.065367 -1.47428 -0.288849 0.092443 -1.46902
          -0.315043 0.113219 -1.462166 -0.345546 0.126279 -1.454184
          -0.37828 0.130734 -1.445618 -0.411015 0.126279 -1.437053
          -0.441518 0.113219 -1.429071 -0.467712 0.092443 -1.422217
          -0.487811 0.065367 -1.416957 -0.500446 0.033836 -1.413651
          -0.504756 0 -1.412523 -0.500446 -0.033836 -1.413651
          -0.487811 -0.065367 -1.416957 -0.467712 -0.092443 -1.422217
          -0.441518 -0.113219 -1.429071 -0.411015 -0.126279 -1.437053
          -0.37828 -0.130734 -1.445618 -0.345546 -0.126279 -1.454184
          -0.315043 -0.113219 -1.462166 -0.288849 -0.092443 -1.46902
          -0.26875 -0.065367 -1.47428 -0.256115 -0.033836 -1.477586
          <InformationKey name="L2_NORM_RANGE" location="vtkDataArray" length="2">
            <Value index="0">
              1.4999994039
            </Value>
            <Value index="1">
              1.5000005062
            </Value>
          </InformationKey>
        </DataArray>
      </Points>
      <Verts>
        <DataArray type="Int64" Name="connectivity" format="ascii" RangeMin="0" RangeMax="287">
          0 1 2 3 4 5
          6 7 8 9 10 11
          12 13 14 15 16 17
          18 19 20 21 22 23
          24 25 26 27 28 29
          30 31 32 33 34 35
          36 37 38 39 40 41
          42 43 44 45 46 47
          48 49 50 51 52 53
          54 55 56 57 58 59
          60 61 62 63 64 65
          66 67 68 69 70 71
          72 73 74 75 76 77
          78 79 80 81 82 83
          84 85 86 87 88 89
          90 91 92 93 94 95
          96 97 98 99 100 101
          102 103 104 105 106 107
          108 109 110 111 112 113
          114 115 116 117 118 119
          120 121 122 123 124 125
          126 127 128 129 130 131
          132 133 134 135 136 137
          138 139 140 141 142 143
          144 145 146 147 148 149
          150 151 152 153 154 155
          156 157 158 159 160 161
          162 163 164 165 166 167
          168 169 170 171 172 173
          174 175 176 177 178 179
          180 181 182 183 184 185
          186 187 188 189 190 191
          192 193 194 195 196 197
          198 199 200 201 202 203
          204 205 206 207 208 209
          210 211 212 213 214 215
          216 217 218 219 220 221
          222 223 224 225 226 227
          228 229 230 231 232 233
          234 235 236 237 238 239
          240 241 242 243 244 245
          246 247 248 249 250 251
          252 253 254 255 256 257
          258 259 260 261 262 263
          264 265 266 267 268 269
          270 271 272 273 274 275
          276 277 278 279 280 281
          282 283 284 285 286 287
        </DataArray>
        <DataArray type="Int64" Name="offsets" format="ascii" RangeMin="1" RangeMax="288">
          1 2 3 4 5 6
          7 8 9 10 11 12
          13 14 15 16 17 18
          19 20 21 22 23 24
          25 26 27 28 29 30
          31 32 33 34 35 36
          37 38 39 40 41 42
          43 44 45 46 47 48
          49 50 51 52 53 54
          55 56 57 58 59 60
          61 62 63 64 65 66
          67 68 69 70 71 72
          73 74 75 76 77 78
          79 80 81 82 83 84
          85 86 87 88 89 90
          91 92 93 94 95 96
          97 98 99 100 101 102
          103 104 105 106 107 108
          109 110 111 112 113 114
          115 116 117 118 119 120
          121 122 123 124 125 126
          127 128 129 130 131 132
          133 134 135 136 137 138
          139 140 141 142 143 144
          145 146 147 148 149 150
          151 152 153 154 155 156
          157 158 159 160 161 162
          163 164 165 166 167 168
          169 170 171 172 173 174
          175 176 177 178 179 180
          181 182 183 184 185 186
          187 188 189 190 191 192
          193 194 195 196 197 198
          199 200 201 202 203 204
          205 206 207 208 209 210
          211 212 213 214 215 216
          217 218 219 220 221 222
          223 224 225 226 227 228
          229 230 231 232 233 234
          235 236 237 238 239 240
          241 242 243 244 245 246
          247 248 249 250 251 252
          253 254 255 256 257 258
          259 260 261 262 263 264
          265 266 267 268 269 270
          271 272 273 274 275 276
          277 278 279 280 281 282
          283 284 285 286 287 288
        </DataArray>
      </Verts>
      <Lines>
        <DataArray type="Int64" Name="connectivity" format="ascii" RangeMin="1e+299" RangeMax="-1e+299">
        </DataArray>
        <DataArray type="Int64" Name="offsets" format="ascii" RangeMin="1e+299" RangeMax="-1e+299">
        </DataArray>
      </Lines>
      <Strips>
        <DataArray type="Int64" Name="connectivity" format="ascii" RangeMin="1e+299" RangeMax="-1e+299">
        </DataArray>
        <DataArray type="Int64" Name="offsets" format="ascii" RangeMin="1e+299" RangeMax="-1e+299">
        </DataArray>
      </Strips>
      <Polys>
        <DataArray type="Int64" Name="connectivity" format="ascii" RangeMin="1e+299" RangeMax="-1e+299">
        </DataArray>
        <DataArray type="Int64" Name="offsets" format="ascii" RangeMin="1e+299" RangeMax="-1e+299">
        </DataArray>
      </Polys>
    </Piece>
  </PolyData>
</VTKFile>
