# vtk DataFile Version 3.0
SM polar seed points transformed to GSW coordinates
ASCII
DATASET POLYDATA
POINTS      288 float
       1.004734       0.000000       1.113782
       0.979741       0.194114       1.119119
       0.906468       0.375000       1.134765
       0.789907       0.530330       1.159654
       0.638001       0.649519       1.192091
       0.461103       0.724444       1.229864
       0.271269       0.750000       1.270399
       0.081434       0.724444       1.310934
      -0.095464       0.649519       1.348707
      -0.247370       0.530330       1.381144
      -0.363931       0.375000       1.406033
      -0.437204       0.194114       1.421679
      -0.462197      -0.000000       1.427016
      -0.437204      -0.194114       1.421679
      -0.363931      -0.375000       1.406033
      -0.247370      -0.530330       1.381144
      -0.095464      -0.649519       1.348707
       0.081434      -0.724444       1.310934
       0.271269      -0.750000       1.270399
       0.461103      -0.724444       1.229864
       0.638001      -0.649519       1.192091
       0.789907      -0.530330       1.159654
       0.906468      -0.375000       1.134765
       0.979741      -0.194114       1.119119
       0.903838       0.000000       1.197112
       0.882714       0.164072       1.201623
       0.820780       0.316964       1.214847
       0.722258       0.448254       1.235885
       0.593862       0.548997       1.263301
       0.444342       0.612327       1.295228
       0.283886       0.633927       1.329490
       0.123431       0.612327       1.363752
      -0.026089       0.548997       1.395680
      -0.154486       0.448254       1.423096
      -0.253007       0.316964       1.444133
      -0.314941       0.164073       1.457358
      -0.336065      -0.000000       1.461869
      -0.314941      -0.164073       1.457358
      -0.253007      -0.316964       1.444133
      -0.154486      -0.448254       1.423096
      -0.026089      -0.548997       1.395680
       0.123431      -0.612327       1.363752
       0.283886      -0.633927       1.329490
       0.444342      -0.612327       1.295228
       0.593862      -0.548997       1.263301
       0.722258      -0.448254       1.235885
       0.820780      -0.316964       1.214847
       0.882713      -0.164073       1.201623
       0.796063       0.000000       1.271331
       0.778968       0.132782       1.274982
       0.728846       0.256515       1.285684
       0.649113       0.362767       1.302710
       0.545204       0.444297       1.324898
       0.424198       0.495549       1.350736
       0.294344       0.513030       1.378464
       0.164489       0.495549       1.406192
       0.043484       0.444297       1.432030
      -0.060426       0.362767       1.454218
      -0.140158       0.256515       1.471243
      -0.190280       0.132782       1.481946
      -0.207376      -0.000000       1.485596
      -0.190280      -0.132782       1.481946
      -0.140158      -0.256515       1.471243
      -0.060426      -0.362767       1.454218
       0.043484      -0.444297       1.432030
       0.164489      -0.495549       1.406192
       0.294344      -0.513030       1.378464
       0.424198      -0.495549       1.350736
       0.545203      -0.444297       1.324898
       0.649113      -0.362767       1.302710
       0.728846      -0.256515       1.285684
       0.778968      -0.132782       1.274982
       0.682230       0.000000       1.335875
       0.669293       0.100481       1.338637
       0.631364       0.194114       1.346736
       0.571028       0.274519       1.359620
       0.492396       0.336216       1.376410
       0.400826       0.375000       1.395963
       0.302561       0.388229       1.416946
       0.204295       0.375000       1.437929
       0.112726       0.336216       1.457481
       0.034094       0.274519       1.474272
      -0.026243       0.194114       1.487155
      -0.064172       0.100481       1.495254
      -0.077109      -0.000000       1.498017
      -0.064172      -0.100481       1.495254
      -0.026243      -0.194114       1.487155
       0.034094      -0.274519       1.474272
       0.112726      -0.336216       1.457481
       0.204295      -0.375000       1.437929
       0.302561      -0.388229       1.416946
       0.400826      -0.375000       1.395963
       0.492395      -0.336216       1.376410
       0.571028      -0.274519       1.359620
       0.631364      -0.194114       1.346736
       0.669293      -0.100481       1.338637
       0.563205       0.000000       1.390252
       0.554525       0.067415       1.392105
       0.529078       0.130236       1.397539
       0.488596       0.184182       1.406183
       0.435840       0.225576       1.417448
       0.374404       0.251597       1.430567
       0.308475       0.260472       1.444644
       0.242546       0.251597       1.458722
       0.181110       0.225576       1.471841
       0.128354       0.184182       1.483106
       0.087873       0.130236       1.491750
       0.062425       0.067415       1.497183
       0.053745      -0.000000       1.499037
       0.062425      -0.067415       1.497183
       0.087873      -0.130236       1.491750
       0.128354      -0.184182       1.483106
       0.181110      -0.225576       1.471841
       0.242546      -0.251597       1.458722
       0.308475      -0.260472       1.444644
       0.374404      -0.251597       1.430567
       0.435840      -0.225576       1.417448
       0.488596      -0.184182       1.406183
       0.529078      -0.130236       1.397539
       0.554525      -0.067415       1.392105
       0.439893       0.000000       1.434048
       0.435537       0.033836       1.434978
       0.422765       0.065367       1.437706
       0.402447       0.092443       1.442044
       0.375968       0.113219       1.447698
       0.345132       0.126279       1.454282
       0.312042       0.130734       1.461348
       0.278952       0.126279       1.468414
       0.248116       0.113219       1.474998
       0.221637       0.092443       1.480652
       0.201319       0.065367       1.484991
       0.188547       0.033836       1.487718
       0.184190      -0.000000       1.488648
       0.188547      -0.033836       1.487718
       0.201319      -0.065367       1.484991
       0.221637      -0.092443       1.480652
       0.248116      -0.113219       1.474998
       0.278952      -0.126279       1.468414
       0.312042      -0.130734       1.461348
       0.345132      -0.126279       1.454282
       0.375968      -0.113219       1.447698
       0.402447      -0.092443       1.442044
       0.422765      -0.065367       1.437706
       0.435537      -0.033836       1.434978
       0.462197       0.000000      -1.427016
       0.437204       0.194114      -1.421679
       0.363931       0.375000      -1.406033
       0.247370       0.530330      -1.381144
       0.095464       0.649519      -1.348707
      -0.081434       0.724444      -1.310934
      -0.271269       0.750000      -1.270399
      -0.461103       0.724444      -1.229864
      -0.638001       0.649519      -1.192091
      -0.789907       0.530330      -1.159654
      -0.906468       0.375000      -1.134765
      -0.979741       0.194114      -1.119119
      -1.004734      -0.000000      -1.113782
      -0.979741      -0.194114      -1.119119
      -0.906468      -0.375000      -1.134765
      -0.789907      -0.530330      -1.159654
      -0.638001      -0.649519      -1.192091
      -0.461103      -0.724444      -1.229864
      -0.271269      -0.750000      -1.270399
      -0.081434      -0.724444      -1.310934
       0.095464      -0.649519      -1.348707
       0.247369      -0.530330      -1.381144
       0.363931      -0.375000      -1.406033
       0.437204      -0.194114      -1.421679
       0.336065       0.000000      -1.461869
       0.314941       0.164072      -1.457358
       0.253007       0.316964      -1.444133
       0.154486       0.448254      -1.423096
       0.026089       0.548997      -1.395680
      -0.123431       0.612327      -1.363752
      -0.283886       0.633927      -1.329490
      -0.444342       0.612327      -1.295228
      -0.593862       0.548997      -1.263301
      -0.722258       0.448254      -1.235885
      -0.820780       0.316964      -1.214847
      -0.882714       0.164073      -1.201623
      -0.903838      -0.000000      -1.197112
      -0.882714      -0.164073      -1.201623
      -0.820780      -0.316964      -1.214847
      -0.722258      -0.448254      -1.235885
      -0.593862      -0.548997      -1.263301
      -0.444342      -0.612327      -1.295228
      -0.283886      -0.633927      -1.329490
      -0.123431      -0.612327      -1.363752
       0.026089      -0.548997      -1.395680
       0.154486      -0.448254      -1.423096
       0.253007      -0.316964      -1.444133
       0.314941      -0.164073      -1.457358
       0.207376       0.000000      -1.485596
       0.190280       0.132782      -1.481946
       0.140158       0.256515      -1.471243
       0.060426       0.362767      -1.454218
      -0.043484       0.444297      -1.432030
      -0.164489       0.495549      -1.406192
      -0.294344       0.513030      -1.378464
      -0.424198       0.495549      -1.350736
      -0.545204       0.444297      -1.324898
      -0.649113       0.362767      -1.302710
      -0.728846       0.256515      -1.285684
      -0.778968       0.132782      -1.274982
      -0.796063      -0.000000      -1.271331
      -0.778968      -0.132782      -1.274982
      -0.728846      -0.256515      -1.285684
      -0.649113      -0.362767      -1.302710
      -0.545203      -0.444297      -1.324898
      -0.424198      -0.495549      -1.350736
      -0.294344      -0.513030      -1.378464
      -0.164489      -0.495549      -1.406192
      -0.043484      -0.444297      -1.432030
       0.060426      -0.362767      -1.454218
       0.140158      -0.256515      -1.471243
       0.190280      -0.132782      -1.481946
       0.077109       0.000000      -1.498017
       0.064172       0.100481      -1.495254
       0.026243       0.194114      -1.487155
      -0.034094       0.274519      -1.474272
      -0.112726       0.336216      -1.457481
      -0.204295       0.375000      -1.437929
      -0.302561       0.388229      -1.416946
      -0.400826       0.375000      -1.395963
      -0.492396       0.336216      -1.376410
      -0.571028       0.274519      -1.359620
      -0.631364       0.194114      -1.346736
      -0.669293       0.100481      -1.338637
      -0.682230      -0.000000      -1.335875
      -0.669293      -0.100481      -1.338637
      -0.631364      -0.194114      -1.346736
      -0.571028      -0.274519      -1.359620
      -0.492395      -0.336216      -1.376410
      -0.400826      -0.375000      -1.395963
      -0.302561      -0.388229      -1.416946
      -0.204295      -0.375000      -1.437929
      -0.112726      -0.336216      -1.457481
      -0.034094      -0.274519      -1.474272
       0.026243      -0.194114      -1.487155
       0.064172      -0.100481      -1.495254
      -0.053745       0.000000      -1.499037
      -0.062425       0.067415      -1.497183
      -0.087873       0.130236      -1.491750
      -0.128354       0.184182      -1.483106
      -0.181110       0.225576      -1.471841
      -0.242546       0.251597      -1.458722
      -0.308475       0.260472      -1.444644
      -0.374404       0.251597      -1.430567
      -0.435840       0.225576      -1.417448
      -0.488596       0.184182      -1.406183
      -0.529078       0.130236      -1.397539
      -0.554525       0.067415      -1.392105
      -0.563205      -0.000000      -1.390252
      -0.554525      -0.067415      -1.392105
      -0.529078      -0.130236      -1.397539
      -0.488596      -0.184182      -1.406183
      -0.435840      -0.225576      -1.417448
      -0.374404      -0.251597      -1.430567
      -0.308475      -0.260472      -1.444644
      -0.242546      -0.251597      -1.458722
      -0.181110      -0.225576      -1.471841
      -0.128354      -0.184182      -1.483106
      -0.087873      -0.130236      -1.491750
      -0.062425      -0.067415      -1.497183
      -0.184190       0.000000      -1.488648
      -0.188547       0.033836      -1.487718
      -0.201319       0.065367      -1.484991
      -0.221637       0.092443      -1.480652
      -0.248116       0.113219      -1.474998
      -0.278952       0.126279      -1.468414
      -0.312042       0.130734      -1.461348
      -0.345132       0.126279      -1.454282
      -0.375968       0.113219      -1.447698
      -0.402447       0.092443      -1.442044
      -0.422765       0.065367      -1.437706
      -0.435537       0.033836      -1.434978
      -0.439893      -0.000000      -1.434048
      -0.435537      -0.033836      -1.434978
      -0.422765      -0.065367      -1.437706
      -0.402447      -0.092443      -1.442044
      -0.375968      -0.113219      -1.447698
      -0.345132      -0.126279      -1.454282
      -0.312042      -0.130734      -1.461348
      -0.278952      -0.126279      -1.468414
      -0.248116      -0.113219      -1.474998
      -0.221637      -0.092443      -1.480652
      -0.201319      -0.065367      -1.484991
      -0.188547      -0.033836      -1.487718
VERTICES      288     576
 1        0
 1        1
 1        2
 1        3
 1        4
 1        5
 1        6
 1        7
 1        8
 1        9
 1       10
 1       11
 1       12
 1       13
 1       14
 1       15
 1       16
 1       17
 1       18
 1       19
 1       20
 1       21
 1       22
 1       23
 1       24
 1       25
 1       26
 1       27
 1       28
 1       29
 1       30
 1       31
 1       32
 1       33
 1       34
 1       35
 1       36
 1       37
 1       38
 1       39
 1       40
 1       41
 1       42
 1       43
 1       44
 1       45
 1       46
 1       47
 1       48
 1       49
 1       50
 1       51
 1       52
 1       53
 1       54
 1       55
 1       56
 1       57
 1       58
 1       59
 1       60
 1       61
 1       62
 1       63
 1       64
 1       65
 1       66
 1       67
 1       68
 1       69
 1       70
 1       71
 1       72
 1       73
 1       74
 1       75
 1       76
 1       77
 1       78
 1       79
 1       80
 1       81
 1       82
 1       83
 1       84
 1       85
 1       86
 1       87
 1       88
 1       89
 1       90
 1       91
 1       92
 1       93
 1       94
 1       95
 1       96
 1       97
 1       98
 1       99
 1      100
 1      101
 1      102
 1      103
 1      104
 1      105
 1      106
 1      107
 1      108
 1      109
 1      110
 1      111
 1      112
 1      113
 1      114
 1      115
 1      116
 1      117
 1      118
 1      119
 1      120
 1      121
 1      122
 1      123
 1      124
 1      125
 1      126
 1      127
 1      128
 1      129
 1      130
 1      131
 1      132
 1      133
 1      134
 1      135
 1      136
 1      137
 1      138
 1      139
 1      140
 1      141
 1      142
 1      143
 1      144
 1      145
 1      146
 1      147
 1      148
 1      149
 1      150
 1      151
 1      152
 1      153
 1      154
 1      155
 1      156
 1      157
 1      158
 1      159
 1      160
 1      161
 1      162
 1      163
 1      164
 1      165
 1      166
 1      167
 1      168
 1      169
 1      170
 1      171
 1      172
 1      173
 1      174
 1      175
 1      176
 1      177
 1      178
 1      179
 1      180
 1      181
 1      182
 1      183
 1      184
 1      185
 1      186
 1      187
 1      188
 1      189
 1      190
 1      191
 1      192
 1      193
 1      194
 1      195
 1      196
 1      197
 1      198
 1      199
 1      200
 1      201
 1      202
 1      203
 1      204
 1      205
 1      206
 1      207
 1      208
 1      209
 1      210
 1      211
 1      212
 1      213
 1      214
 1      215
 1      216
 1      217
 1      218
 1      219
 1      220
 1      221
 1      222
 1      223
 1      224
 1      225
 1      226
 1      227
 1      228
 1      229
 1      230
 1      231
 1      232
 1      233
 1      234
 1      235
 1      236
 1      237
 1      238
 1      239
 1      240
 1      241
 1      242
 1      243
 1      244
 1      245
 1      246
 1      247
 1      248
 1      249
 1      250
 1      251
 1      252
 1      253
 1      254
 1      255
 1      256
 1      257
 1      258
 1      259
 1      260
 1      261
 1      262
 1      263
 1      264
 1      265
 1      266
 1      267
 1      268
 1      269
 1      270
 1      271
 1      272
 1      273
 1      274
 1      275
 1      276
 1      277
 1      278
 1      279
 1      280
 1      281
 1      282
 1      283
 1      284
 1      285
 1      286
 1      287
POINT_DATA      288
SCALARS hemisphere int 1
LOOKUP_TABLE default
 1
 1
 1
 1
 1
 1
 1
 1
 1
 1
 1
 1
 1
 1
 1
 1
 1
 1
 1
 1
 1
 1
 1
 1
 1
 1
 1
 1
 1
 1
 1
 1
 1
 1
 1
 1
 1
 1
 1
 1
 1
 1
 1
 1
 1
 1
 1
 1
 1
 1
 1
 1
 1
 1
 1
 1
 1
 1
 1
 1
 1
 1
 1
 1
 1
 1
 1
 1
 1
 1
 1
 1
 1
 1
 1
 1
 1
 1
 1
 1
 1
 1
 1
 1
 1
 1
 1
 1
 1
 1
 1
 1
 1
 1
 1
 1
 1
 1
 1
 1
 1
 1
 1
 1
 1
 1
 1
 1
 1
 1
 1
 1
 1
 1
 1
 1
 1
 1
 1
 1
 1
 1
 1
 1
 1
 1
 1
 1
 1
 1
 1
 1
 1
 1
 1
 1
 1
 1
 1
 1
 1
 1
 1
 1
-1
-1
-1
-1
-1
-1
-1
-1
-1
-1
-1
-1
-1
-1
-1
-1
-1
-1
-1
-1
-1
-1
-1
-1
-1
-1
-1
-1
-1
-1
-1
-1
-1
-1
-1
-1
-1
-1
-1
-1
-1
-1
-1
-1
-1
-1
-1
-1
-1
-1
-1
-1
-1
-1
-1
-1
-1
-1
-1
-1
-1
-1
-1
-1
-1
-1
-1
-1
-1
-1
-1
-1
-1
-1
-1
-1
-1
-1
-1
-1
-1
-1
-1
-1
-1
-1
-1
-1
-1
-1
-1
-1
-1
-1
-1
-1
-1
-1
-1
-1
-1
-1
-1
-1
-1
-1
-1
-1
-1
-1
-1
-1
-1
-1
-1
-1
-1
-1
-1
-1
-1
-1
-1
-1
-1
-1
-1
-1
-1
-1
-1
-1
-1
-1
-1
-1
-1
-1
-1
-1
-1
-1
-1
-1
