# vtk DataFile Version 3.0
SM polar seed points transformed to GSW coordinates
ASCII
DATASET POLYDATA
POINTS      288 float
       0.640255       0.000000       1.356493
       0.614786       0.194114       1.354385
       0.540116       0.375000       1.348202
       0.421334       0.530330       1.338368
       0.266533       0.649519       1.325551
       0.086264       0.724444       1.310625
      -0.107188       0.750000       1.294608
      -0.300640       0.724444       1.278591
      -0.480909       0.649519       1.263666
      -0.635710       0.530330       1.250849
      -0.754492       0.375000       1.241014
      -0.829162       0.194114       1.234832
      -0.854630      -0.000000       1.232723
      -0.829162      -0.194114       1.234832
      -0.754492      -0.375000       1.241014
      -0.635710      -0.530330       1.250849
      -0.480909      -0.649519       1.263666
      -0.300640      -0.724444       1.278591
      -0.107188      -0.750000       1.294608
       0.086264      -0.724444       1.310625
       0.266533      -0.649519       1.325551
       0.421334      -0.530330       1.338368
       0.540116      -0.375000       1.348202
       0.614786      -0.194114       1.354385
       0.519592       0.000000       1.407133
       0.498065       0.164072       1.405351
       0.434951       0.316964       1.400125
       0.334552       0.448254       1.391813
       0.203709       0.548997       1.380980
       0.051339       0.612327       1.368364
      -0.112174       0.633927       1.354826
      -0.275687       0.612327       1.341288
      -0.428057       0.548997       1.328672
      -0.558899       0.448254       1.317839
      -0.659299       0.316964       1.309526
      -0.722412       0.164073       1.304301
      -0.743939      -0.000000       1.302518
      -0.722412      -0.164073       1.304301
      -0.659299      -0.316964       1.309526
      -0.558899      -0.448254       1.317839
      -0.428056      -0.548997       1.328672
      -0.275687      -0.612327       1.341288
      -0.112174      -0.633927       1.354826
       0.051339      -0.612327       1.368364
       0.203709      -0.548997       1.380980
       0.334552      -0.448254       1.391813
       0.434951      -0.316964       1.400125
       0.498065      -0.164073       1.405351
       0.394975       0.000000       1.447064
       0.377554       0.132782       1.445622
       0.326476       0.256515       1.441393
       0.245224       0.362767       1.434665
       0.139335       0.444297       1.425898
       0.016024       0.495549       1.415689
      -0.116306       0.513030       1.404732
      -0.248635       0.495549       1.393776
      -0.371946       0.444297       1.383566
      -0.477836       0.362767       1.374799
      -0.559088       0.256515       1.368072
      -0.610165       0.132782       1.363843
      -0.627586      -0.000000       1.362401
      -0.610165      -0.132782       1.363843
      -0.559088      -0.256515       1.368072
      -0.477836      -0.362767       1.374799
      -0.371946      -0.444297       1.383566
      -0.248635      -0.495549       1.393776
      -0.116306      -0.513030       1.404732
       0.016024      -0.495549       1.415689
       0.139335      -0.444297       1.425898
       0.245224      -0.362767       1.434665
       0.326476      -0.256515       1.441393
       0.377554      -0.132782       1.445622
       0.267352       0.000000       1.475982
       0.254169       0.100481       1.474890
       0.215517       0.194114       1.471690
       0.154030       0.274519       1.466599
       0.073900       0.336216       1.459965
      -0.019414       0.375000       1.452239
      -0.119553       0.388229       1.443948
      -0.219691       0.375000       1.435657
      -0.313005       0.336216       1.427931
      -0.393136       0.274519       1.421297
      -0.454622       0.194114       1.416206
      -0.493274       0.100481       1.413006
      -0.506457      -0.000000       1.411914
      -0.493274      -0.100481       1.413006
      -0.454622      -0.194114       1.416206
      -0.393136      -0.274519       1.421297
      -0.313005      -0.336216       1.427931
      -0.219691      -0.375000       1.435657
      -0.119553      -0.388229       1.443948
      -0.019414      -0.375000       1.452239
       0.073900      -0.336216       1.459965
       0.154030      -0.274519       1.466599
       0.215517      -0.194114       1.471690
       0.254169      -0.100481       1.474890
       0.137695       0.000000       1.493667
       0.128849       0.067415       1.492934
       0.102917       0.130236       1.490787
       0.061664       0.184182       1.487372
       0.007903       0.225576       1.482920
      -0.054704       0.251597       1.477737
      -0.121890       0.260472       1.472174
      -0.189075       0.251597       1.466612
      -0.251682       0.225576       1.461428
      -0.305443       0.184182       1.456977
      -0.346696       0.130236       1.453561
      -0.372629       0.067415       1.451414
      -0.381474      -0.000000       1.450682
      -0.372629      -0.067415       1.451414
      -0.346696      -0.130236       1.453561
      -0.305443      -0.184182       1.456977
      -0.251682      -0.225576       1.461428
      -0.189075      -0.251597       1.466612
      -0.121890      -0.260472       1.472174
      -0.054704      -0.251597       1.477737
       0.007902      -0.225576       1.482920
       0.061664      -0.184182       1.487372
       0.102917      -0.130236       1.490787
       0.128849      -0.067415       1.492934
       0.006989       0.000000       1.499984
       0.002550       0.033836       1.499616
      -0.010466       0.065367       1.498538
      -0.031171       0.092443       1.496824
      -0.058155       0.113219       1.494590
      -0.089578       0.126279       1.491988
      -0.123299       0.130734       1.489196
      -0.157020       0.126279       1.486404
      -0.188443       0.113219       1.483803
      -0.215426       0.092443       1.481569
      -0.236132       0.065367       1.479854
      -0.249147       0.033836       1.478777
      -0.253587      -0.000000       1.478409
      -0.249147      -0.033836       1.478777
      -0.236132      -0.065367       1.479854
      -0.215426      -0.092443       1.481569
      -0.188443      -0.113219       1.483803
      -0.157020      -0.126279       1.486404
      -0.123299      -0.130734       1.489196
      -0.089578      -0.126279       1.491988
      -0.058155      -0.113219       1.494590
      -0.031171      -0.092443       1.496824
      -0.010466      -0.065367       1.498538
       0.002550      -0.033836       1.499616
       0.854630       0.000000      -1.232723
       0.829162       0.194114      -1.234832
       0.754492       0.375000      -1.241014
       0.635710       0.530330      -1.250849
       0.480909       0.649519      -1.263666
       0.300640       0.724444      -1.278591
       0.107188       0.750000      -1.294608
      -0.086264       0.724444      -1.310625
      -0.266533       0.649519      -1.325551
      -0.421334       0.530330      -1.338368
      -0.540116       0.375000      -1.348202
      -0.614786       0.194114      -1.354385
      -0.640255      -0.000000      -1.356493
      -0.614786      -0.194114      -1.354385
      -0.540116      -0.375000      -1.348202
      -0.421334      -0.530330      -1.338368
      -0.266533      -0.649519      -1.325551
      -0.086264      -0.724444      -1.310625
       0.107188      -0.750000      -1.294608
       0.300640      -0.724444      -1.278591
       0.480909      -0.649519      -1.263666
       0.635709      -0.530330      -1.250849
       0.754492      -0.375000      -1.241014
       0.829162      -0.194114      -1.234832
       0.743939       0.000000      -1.302518
       0.722412       0.164072      -1.304301
       0.659299       0.316964      -1.309526
       0.558899       0.448254      -1.317839
       0.428056       0.548997      -1.328672
       0.275687       0.612327      -1.341288
       0.112174       0.633927      -1.354826
      -0.051339       0.612327      -1.368364
      -0.203709       0.548997      -1.380980
      -0.334552       0.448254      -1.391813
      -0.434951       0.316964      -1.400125
      -0.498065       0.164073      -1.405351
      -0.519592      -0.000000      -1.407133
      -0.498065      -0.164073      -1.405351
      -0.434951      -0.316964      -1.400125
      -0.334552      -0.448254      -1.391813
      -0.203709      -0.548997      -1.380980
      -0.051339      -0.612327      -1.368364
       0.112174      -0.633927      -1.354826
       0.275687      -0.612327      -1.341288
       0.428056      -0.548997      -1.328672
       0.558899      -0.448254      -1.317839
       0.659299      -0.316964      -1.309526
       0.722412      -0.164073      -1.304301
       0.627586       0.000000      -1.362401
       0.610165       0.132782      -1.363843
       0.559088       0.256515      -1.368072
       0.477836       0.362767      -1.374799
       0.371946       0.444297      -1.383566
       0.248635       0.495549      -1.393776
       0.116306       0.513030      -1.404732
      -0.016024       0.495549      -1.415689
      -0.139335       0.444297      -1.425898
      -0.245224       0.362767      -1.434665
      -0.326476       0.256515      -1.441393
      -0.377554       0.132782      -1.445622
      -0.394975      -0.000000      -1.447064
      -0.377554      -0.132782      -1.445622
      -0.326476      -0.256515      -1.441393
      -0.245224      -0.362767      -1.434666
      -0.139335      -0.444297      -1.425898
      -0.016024      -0.495549      -1.415689
       0.116306      -0.513030      -1.404732
       0.248635      -0.495549      -1.393776
       0.371946      -0.444297      -1.383566
       0.477836      -0.362767      -1.374799
       0.559088      -0.256515      -1.368072
       0.610165      -0.132782      -1.363843
       0.506457       0.000000      -1.411914
       0.493274       0.100481      -1.413006
       0.454622       0.194114      -1.416206
       0.393135       0.274519      -1.421297
       0.313005       0.336216      -1.427931
       0.219691       0.375000      -1.435657
       0.119553       0.388229      -1.443948
       0.019414       0.375000      -1.452239
      -0.073900       0.336216      -1.459965
      -0.154030       0.274519      -1.466599
      -0.215517       0.194114      -1.471690
      -0.254169       0.100481      -1.474890
      -0.267352      -0.000000      -1.475982
      -0.254169      -0.100481      -1.474890
      -0.215517      -0.194114      -1.471690
      -0.154030      -0.274519      -1.466599
      -0.073900      -0.336216      -1.459965
       0.019414      -0.375000      -1.452239
       0.119553      -0.388229      -1.443948
       0.219691      -0.375000      -1.435657
       0.313005      -0.336216      -1.427931
       0.393135      -0.274519      -1.421297
       0.454622      -0.194114      -1.416206
       0.493274      -0.100481      -1.413006
       0.381474       0.000000      -1.450682
       0.372629       0.067415      -1.451414
       0.346696       0.130236      -1.453561
       0.305443       0.184182      -1.456977
       0.251682       0.225576      -1.461428
       0.189075       0.251597      -1.466612
       0.121890       0.260472      -1.472174
       0.054704       0.251597      -1.477737
      -0.007903       0.225576      -1.482920
      -0.061664       0.184182      -1.487372
      -0.102917       0.130236      -1.490787
      -0.128849       0.067415      -1.492934
      -0.137695      -0.000000      -1.493667
      -0.128849      -0.067415      -1.492934
      -0.102917      -0.130236      -1.490787
      -0.061664      -0.184182      -1.487372
      -0.007902      -0.225576      -1.482920
       0.054704      -0.251597      -1.477737
       0.121890      -0.260472      -1.472174
       0.189075      -0.251597      -1.466612
       0.251682      -0.225576      -1.461428
       0.305443      -0.184182      -1.456977
       0.346696      -0.130236      -1.453561
       0.372629      -0.067415      -1.451414
       0.253587       0.000000      -1.478409
       0.249147       0.033836      -1.478777
       0.236132       0.065367      -1.479854
       0.215426       0.092443      -1.481569
       0.188443       0.113219      -1.483803
       0.157020       0.126279      -1.486404
       0.123299       0.130734      -1.489196
       0.089578       0.126279      -1.491988
       0.058155       0.113219      -1.494590
       0.031171       0.092443      -1.496824
       0.010466       0.065367      -1.498538
      -0.002550       0.033836      -1.499616
      -0.006989      -0.000000      -1.499984
      -0.002550      -0.033836      -1.499616
       0.010466      -0.065367      -1.498538
       0.031171      -0.092443      -1.496824
       0.058155      -0.113219      -1.494590
       0.089578      -0.126279      -1.491988
       0.123299      -0.130734      -1.489196
       0.157020      -0.126279      -1.486404
       0.188443      -0.113219      -1.483803
       0.215426      -0.092443      -1.481569
       0.236132      -0.065367      -1.479854
       0.249147      -0.033836      -1.478777
VERTICES      288     576
 1        0
 1        1
 1        2
 1        3
 1        4
 1        5
 1        6
 1        7
 1        8
 1        9
 1       10
 1       11
 1       12
 1       13
 1       14
 1       15
 1       16
 1       17
 1       18
 1       19
 1       20
 1       21
 1       22
 1       23
 1       24
 1       25
 1       26
 1       27
 1       28
 1       29
 1       30
 1       31
 1       32
 1       33
 1       34
 1       35
 1       36
 1       37
 1       38
 1       39
 1       40
 1       41
 1       42
 1       43
 1       44
 1       45
 1       46
 1       47
 1       48
 1       49
 1       50
 1       51
 1       52
 1       53
 1       54
 1       55
 1       56
 1       57
 1       58
 1       59
 1       60
 1       61
 1       62
 1       63
 1       64
 1       65
 1       66
 1       67
 1       68
 1       69
 1       70
 1       71
 1       72
 1       73
 1       74
 1       75
 1       76
 1       77
 1       78
 1       79
 1       80
 1       81
 1       82
 1       83
 1       84
 1       85
 1       86
 1       87
 1       88
 1       89
 1       90
 1       91
 1       92
 1       93
 1       94
 1       95
 1       96
 1       97
 1       98
 1       99
 1      100
 1      101
 1      102
 1      103
 1      104
 1      105
 1      106
 1      107
 1      108
 1      109
 1      110
 1      111
 1      112
 1      113
 1      114
 1      115
 1      116
 1      117
 1      118
 1      119
 1      120
 1      121
 1      122
 1      123
 1      124
 1      125
 1      126
 1      127
 1      128
 1      129
 1      130
 1      131
 1      132
 1      133
 1      134
 1      135
 1      136
 1      137
 1      138
 1      139
 1      140
 1      141
 1      142
 1      143
 1      144
 1      145
 1      146
 1      147
 1      148
 1      149
 1      150
 1      151
 1      152
 1      153
 1      154
 1      155
 1      156
 1      157
 1      158
 1      159
 1      160
 1      161
 1      162
 1      163
 1      164
 1      165
 1      166
 1      167
 1      168
 1      169
 1      170
 1      171
 1      172
 1      173
 1      174
 1      175
 1      176
 1      177
 1      178
 1      179
 1      180
 1      181
 1      182
 1      183
 1      184
 1      185
 1      186
 1      187
 1      188
 1      189
 1      190
 1      191
 1      192
 1      193
 1      194
 1      195
 1      196
 1      197
 1      198
 1      199
 1      200
 1      201
 1      202
 1      203
 1      204
 1      205
 1      206
 1      207
 1      208
 1      209
 1      210
 1      211
 1      212
 1      213
 1      214
 1      215
 1      216
 1      217
 1      218
 1      219
 1      220
 1      221
 1      222
 1      223
 1      224
 1      225
 1      226
 1      227
 1      228
 1      229
 1      230
 1      231
 1      232
 1      233
 1      234
 1      235
 1      236
 1      237
 1      238
 1      239
 1      240
 1      241
 1      242
 1      243
 1      244
 1      245
 1      246
 1      247
 1      248
 1      249
 1      250
 1      251
 1      252
 1      253
 1      254
 1      255
 1      256
 1      257
 1      258
 1      259
 1      260
 1      261
 1      262
 1      263
 1      264
 1      265
 1      266
 1      267
 1      268
 1      269
 1      270
 1      271
 1      272
 1      273
 1      274
 1      275
 1      276
 1      277
 1      278
 1      279
 1      280
 1      281
 1      282
 1      283
 1      284
 1      285
 1      286
 1      287
POINT_DATA      288
SCALARS hemisphere int 1
LOOKUP_TABLE default
 1
 1
 1
 1
 1
 1
 1
 1
 1
 1
 1
 1
 1
 1
 1
 1
 1
 1
 1
 1
 1
 1
 1
 1
 1
 1
 1
 1
 1
 1
 1
 1
 1
 1
 1
 1
 1
 1
 1
 1
 1
 1
 1
 1
 1
 1
 1
 1
 1
 1
 1
 1
 1
 1
 1
 1
 1
 1
 1
 1
 1
 1
 1
 1
 1
 1
 1
 1
 1
 1
 1
 1
 1
 1
 1
 1
 1
 1
 1
 1
 1
 1
 1
 1
 1
 1
 1
 1
 1
 1
 1
 1
 1
 1
 1
 1
 1
 1
 1
 1
 1
 1
 1
 1
 1
 1
 1
 1
 1
 1
 1
 1
 1
 1
 1
 1
 1
 1
 1
 1
 1
 1
 1
 1
 1
 1
 1
 1
 1
 1
 1
 1
 1
 1
 1
 1
 1
 1
 1
 1
 1
 1
 1
 1
-1
-1
-1
-1
-1
-1
-1
-1
-1
-1
-1
-1
-1
-1
-1
-1
-1
-1
-1
-1
-1
-1
-1
-1
-1
-1
-1
-1
-1
-1
-1
-1
-1
-1
-1
-1
-1
-1
-1
-1
-1
-1
-1
-1
-1
-1
-1
-1
-1
-1
-1
-1
-1
-1
-1
-1
-1
-1
-1
-1
-1
-1
-1
-1
-1
-1
-1
-1
-1
-1
-1
-1
-1
-1
-1
-1
-1
-1
-1
-1
-1
-1
-1
-1
-1
-1
-1
-1
-1
-1
-1
-1
-1
-1
-1
-1
-1
-1
-1
-1
-1
-1
-1
-1
-1
-1
-1
-1
-1
-1
-1
-1
-1
-1
-1
-1
-1
-1
-1
-1
-1
-1
-1
-1
-1
-1
-1
-1
-1
-1
-1
-1
-1
-1
-1
-1
-1
-1
-1
-1
-1
-1
-1
-1
