# vtk DataFile Version 3.0
T01 + IGRF magnetic field in GSW coordinates
ASCII
DATASET STRUCTURED_GRID
DIMENSIONS     61    21    21
POINTS    26901 float
     -50.000000     -10.000000     -10.000000
     -49.000000     -10.000000     -10.000000
     -48.000000     -10.000000     -10.000000
     -47.000000     -10.000000     -10.000000
     -46.000000     -10.000000     -10.000000
     -45.000000     -10.000000     -10.000000
     -44.000000     -10.000000     -10.000000
     -43.000000     -10.000000     -10.000000
     -42.000000     -10.000000     -10.000000
     -41.000000     -10.000000     -10.000000
     -40.000000     -10.000000     -10.000000
     -39.000000     -10.000000     -10.000000
     -38.000000     -10.000000     -10.000000
     -37.000000     -10.000000     -10.000000
     -36.000000     -10.000000     -10.000000
     -35.000000     -10.000000     -10.000000
     -34.000000     -10.000000     -10.000000
     -33.000000     -10.000000     -10.000000
     -32.000000     -10.000000     -10.000000
     -31.000000     -10.000000     -10.000000
     -30.000000     -10.000000     -10.000000
     -29.000000     -10.000000     -10.000000
     -28.000000     -10.000000     -10.000000
     -27.000000     -10.000000     -10.000000
     -26.000000     -10.000000     -10.000000
     -25.000000     -10.000000     -10.000000
     -24.000000     -10.000000     -10.000000
     -23.000000     -10.000000     -10.000000
     -22.000000     -10.000000     -10.000000
     -21.000000     -10.000000     -10.000000
     -20.000000     -10.000000     -10.000000
     -19.000000     -10.000000     -10.000000
     -18.000000     -10.000000     -10.000000
     -17.000000     -10.000000     -10.000000
     -16.000000     -10.000000     -10.000000
     -15.000000     -10.000000     -10.000000
     -14.000000     -10.000000     -10.000000
     -13.000000     -10.000000     -10.000000
     -12.000000     -10.000000     -10.000000
     -11.000000     -10.000000     -10.000000
     -10.000000     -10.000000     -10.000000
      -9.000000     -10.000000     -10.000000
      -8.000000     -10.000000     -10.000000
      -7.000000     -10.000000     -10.000000
      -6.000000     -10.000000     -10.000000
      -5.000000     -10.000000     -10.000000
      -4.000000     -10.000000     -10.000000
      -3.000000     -10.000000     -10.000000
      -2.000000     -10.000000     -10.000000
      -1.000000     -10.000000     -10.000000
       0.000000     -10.000000     -10.000000
       1.000000     -10.000000     -10.000000
       2.000000     -10.000000     -10.000000
       3.000000     -10.000000     -10.000000
       4.000000     -10.000000     -10.000000
       5.000000     -10.000000     -10.000000
       6.000000     -10.000000     -10.000000
       7.000000     -10.000000     -10.000000
       8.000000     -10.000000     -10.000000
       9.000000     -10.000000     -10.000000
      10.000000     -10.000000     -10.000000
     -50.000000      -9.000000     -10.000000
     -49.000000      -9.000000     -10.000000
     -48.000000      -9.000000     -10.000000
     -47.000000      -9.000000     -10.000000
     -46.000000      -9.000000     -10.000000
     -45.000000      -9.000000     -10.000000
     -44.000000      -9.000000     -10.000000
     -43.000000      -9.000000     -10.000000
     -42.000000      -9.000000     -10.000000
     -41.000000      -9.000000     -10.000000
     -40.000000      -9.000000     -10.000000
     -39.000000      -9.000000     -10.000000
     -38.000000      -9.000000     -10.000000
     -37.000000      -9.000000     -10.000000
     -36.000000      -9.000000     -10.000000
     -35.000000      -9.000000     -10.000000
     -34.000000      -9.000000     -10.000000
     -33.000000      -9.000000     -10.000000
     -32.000000      -9.000000     -10.000000
     -31.000000      -9.000000     -10.000000
     -30.000000      -9.000000     -10.000000
     -29.000000      -9.000000     -10.000000
     -28.000000      -9.000000     -10.000000
     -27.000000      -9.000000     -10.000000
     -26.000000      -9.000000     -10.000000
     -25.000000      -9.000000     -10.000000
     -24.000000      -9.000000     -10.000000
     -23.000000      -9.000000     -10.000000
     -22.000000      -9.000000     -10.000000
     -21.000000      -9.000000     -10.000000
     -20.000000      -9.000000     -10.000000
     -19.000000      -9.000000     -10.000000
     -18.000000      -9.000000     -10.000000
     -17.000000      -9.000000     -10.000000
     -16.000000      -9.000000     -10.000000
     -15.000000      -9.000000     -10.000000
     -14.000000      -9.000000     -10.000000
     -13.000000      -9.000000     -10.000000
     -12.000000      -9.000000     -10.000000
     -11.000000      -9.000000     -10.000000
     -10.000000      -9.000000     -10.000000
      -9.000000      -9.000000     -10.000000
      -8.000000      -9.000000     -10.000000
      -7.000000      -9.000000     -10.000000
      -6.000000      -9.000000     -10.000000
      -5.000000      -9.000000     -10.000000
      -4.000000      -9.000000     -10.000000
      -3.000000      -9.000000     -10.000000
      -2.000000      -9.000000     -10.000000
      -1.000000      -9.000000     -10.000000
       0.000000      -9.000000     -10.000000
       1.000000      -9.000000     -10.000000
       2.000000      -9.000000     -10.000000
       3.000000      -9.000000     -10.000000
       4.000000      -9.000000     -10.000000
       5.000000      -9.000000     -10.000000
       6.000000      -9.000000     -10.000000
       7.000000      -9.000000     -10.000000
       8.000000      -9.000000     -10.000000
       9.000000      -9.000000     -10.000000
      10.000000      -9.000000     -10.000000
     -50.000000      -8.000000     -10.000000
     -49.000000      -8.000000     -10.000000
     -48.000000      -8.000000     -10.000000
     -47.000000      -8.000000     -10.000000
     -46.000000      -8.000000     -10.000000
     -45.000000      -8.000000     -10.000000
     -44.000000      -8.000000     -10.000000
     -43.000000      -8.000000     -10.000000
     -42.000000      -8.000000     -10.000000
     -41.000000      -8.000000     -10.000000
     -40.000000      -8.000000     -10.000000
     -39.000000      -8.000000     -10.000000
     -38.000000      -8.000000     -10.000000
     -37.000000      -8.000000     -10.000000
     -36.000000      -8.000000     -10.000000
     -35.000000      -8.000000     -10.000000
     -34.000000      -8.000000     -10.000000
     -33.000000      -8.000000     -10.000000
     -32.000000      -8.000000     -10.000000
     -31.000000      -8.000000     -10.000000
     -30.000000      -8.000000     -10.000000
     -29.000000      -8.000000     -10.000000
     -28.000000      -8.000000     -10.000000
     -27.000000      -8.000000     -10.000000
     -26.000000      -8.000000     -10.000000
     -25.000000      -8.000000     -10.000000
     -24.000000      -8.000000     -10.000000
     -23.000000      -8.000000     -10.000000
     -22.000000      -8.000000     -10.000000
     -21.000000      -8.000000     -10.000000
     -20.000000      -8.000000     -10.000000
     -19.000000      -8.000000     -10.000000
     -18.000000      -8.000000     -10.000000
     -17.000000      -8.000000     -10.000000
     -16.000000      -8.000000     -10.000000
     -15.000000      -8.000000     -10.000000
     -14.000000      -8.000000     -10.000000
     -13.000000      -8.000000     -10.000000
     -12.000000      -8.000000     -10.000000
     -11.000000      -8.000000     -10.000000
     -10.000000      -8.000000     -10.000000
      -9.000000      -8.000000     -10.000000
      -8.000000      -8.000000     -10.000000
      -7.000000      -8.000000     -10.000000
      -6.000000      -8.000000     -10.000000
      -5.000000      -8.000000     -10.000000
      -4.000000      -8.000000     -10.000000
      -3.000000      -8.000000     -10.000000
      -2.000000      -8.000000     -10.000000
      -1.000000      -8.000000     -10.000000
       0.000000      -8.000000     -10.000000
       1.000000      -8.000000     -10.000000
       2.000000      -8.000000     -10.000000
       3.000000      -8.000000     -10.000000
       4.000000      -8.000000     -10.000000
       5.000000      -8.000000     -10.000000
       6.000000      -8.000000     -10.000000
       7.000000      -8.000000     -10.000000
       8.000000      -8.000000     -10.000000
       9.000000      -8.000000     -10.000000
      10.000000      -8.000000     -10.000000
     -50.000000      -7.000000     -10.000000
     -49.000000      -7.000000     -10.000000
     -48.000000      -7.000000     -10.000000
     -47.000000      -7.000000     -10.000000
     -46.000000      -7.000000     -10.000000
     -45.000000      -7.000000     -10.000000
     -44.000000      -7.000000     -10.000000
     -43.000000      -7.000000     -10.000000
     -42.000000      -7.000000     -10.000000
     -41.000000      -7.000000     -10.000000
     -40.000000      -7.000000     -10.000000
     -39.000000      -7.000000     -10.000000
     -38.000000      -7.000000     -10.000000
     -37.000000      -7.000000     -10.000000
     -36.000000      -7.000000     -10.000000
     -35.000000      -7.000000     -10.000000
     -34.000000      -7.000000     -10.000000
     -33.000000      -7.000000     -10.000000
     -32.000000      -7.000000     -10.000000
     -31.000000      -7.000000     -10.000000
     -30.000000      -7.000000     -10.000000
     -29.000000      -7.000000     -10.000000
     -28.000000      -7.000000     -10.000000
     -27.000000      -7.000000     -10.000000
     -26.000000      -7.000000     -10.000000
     -25.000000      -7.000000     -10.000000
[...]
POINT_DATA    26901
VECTORS B_total float
  -9.8218336E+00  -1.3796034E+00   3.2192793E+00
  -1.0154645E+01  -1.4174987E+00   3.3057845E+00
  -1.0496661E+01  -1.4569622E+00   3.3929436E+00
  -1.0848124E+01  -1.4981743E+00   3.4804749E+00
  -1.1209317E+01  -1.5413431E+00   3.5680606E+00
  -1.1580572E+01  -1.5867075E+00   3.6553416E+00
  -1.1962269E+01  -1.6345406E+00   3.7419131E+00
  -1.2354852E+01  -1.6851535E+00   3.8273172E+00
  -1.2758831E+01  -1.7389002E+00   3.9110367E+00
  -1.3174794E+01  -1.7961816E+00   3.9924853E+00
  -1.3603406E+01  -1.8574501E+00   4.0709996E+00
  -1.4045420E+01  -1.9232160E+00   4.1458278E+00
  -1.4501677E+01  -1.9940526E+00   4.2161174E+00
  -1.4973111E+01  -2.0706034E+00   4.2809024E+00
  -1.5460746E+01  -2.1535892E+00   4.3390932E+00
  -1.5965692E+01  -2.2438164E+00   4.3894606E+00
  -1.6489136E+01  -2.3421867E+00   4.4306259E+00
  -1.7032330E+01  -2.4497082E+00   4.4610500E+00
  -1.7596584E+01  -2.5675082E+00   4.4790254E+00
  -1.8183226E+01  -2.6968489E+00   4.4826736E+00
  -1.8793604E+01  -2.8391454E+00   4.4699426E+00
  -1.9429031E+01  -2.9959893E+00   4.4386120E+00
  -2.0090780E+01  -3.1691761E+00   4.3863015E+00
  -2.0780024E+01  -3.3607376E+00   4.3104835E+00
  -2.1497810E+01  -3.5729823E+00   4.2084951E+00
  -2.2244997E+01  -3.8085399E+00   4.0775576E+00
  -2.3022211E+01  -4.0704265E+00   3.9147856E+00
  -2.3829737E+01  -4.3620925E+00   3.7172186E+00
  -2.4667402E+01  -4.6875014E+00   3.4818430E+00
  -2.5534439E+01  -5.0512056E+00   3.2056472E+00
  -2.6429262E+01  -5.4584260E+00   2.8857119E+00
  -2.7349236E+01  -5.9151335E+00   2.5193489E+00
  -2.8290390E+01  -6.4281240E+00   2.1043317E+00
  -2.9247108E+01  -7.0050678E+00   1.6391872E+00
  -3.0211842E+01  -7.6545267E+00   1.1235919E+00
  -3.1174828E+01  -8.3858595E+00   5.5880958E-01
  -3.2123833E+01  -9.2089911E+00  -5.1831156E-02
  -3.3043957E+01  -1.0133903E+01  -7.0248127E-01
  -3.3917416E+01  -1.1169733E+01  -1.3843343E+00
  -3.4723381E+01  -1.2323299E+01  -2.0851986E+00
  -3.5437859E+01  -1.3596930E+01  -2.7889433E+00
  -3.6033916E+01  -1.4985483E+01  -3.4746425E+00
  -3.6482601E+01  -1.6472738E+01  -4.1152234E+00
  -3.6755310E+01  -1.8027559E+01  -4.6755819E+00
  -3.6828354E+01  -1.9600765E+01  -5.1105423E+00
  -3.6690037E+01  -2.1123909E+01  -5.3635674E+00
  -3.6349804E+01  -2.2511501E+01  -5.3674731E+00
  -3.5847549E+01  -2.3667564E+01  -5.0482812E+00
  -3.5260124E+01  -2.4496521E+01  -4.3324838E+00
  -2.8227360E+01  -2.0309551E+01  -2.4471900E+00
   8.3428860E-02  -1.1193466E-01   6.7433548E-01
   3.9913416E-02  -9.5950127E-02   6.8111515E-01
  -4.8065186E-03  -9.1935158E-02   6.7720985E-01
  -4.5640945E-02  -9.9362373E-02   6.6364908E-01
  -7.8684330E-02  -1.1606216E-01   6.4282703E-01
  -1.0182905E-01  -1.3895416E-01   6.1780906E-01
  -1.1480713E-01  -1.6479015E-01   5.9162104E-01
  -1.1877012E-01  -1.9078445E-01   5.6670785E-01
  -1.1566639E-01  -2.1492958E-01   5.4470873E-01
  -1.0769081E-01  -2.3603392E-01   5.2643293E-01
  -9.6844196E-02  -2.5362062E-01   5.1205641E-01
  -9.8629942E+00  -1.2850440E+00   3.2123728E+00
  -1.0197477E+01  -1.3198591E+00   3.2972317E+00
  -1.0541348E+01  -1.3561289E+00   3.3825991E+00
  -1.0894876E+01  -1.3940207E+00   3.4681907E+00
  -1.1258376E+01  -1.4337273E+00   3.5536840E+00
  -1.1632212E+01  -1.4754704E+00   3.6387167E+00
  -1.2016803E+01  -1.5195036E+00   3.7228792E+00
  -1.2412636E+01  -1.5661165E+00   3.8057094E+00
  -1.2820268E+01  -1.6156375E+00   3.8866849E+00
  -1.3240335E+01  -1.6684406E+00   3.9652131E+00
  -1.3673560E+01  -1.7249476E+00   4.0406227E+00
  -1.4120760E+01  -1.7856352E+00   4.1121516E+00
  -1.4582845E+01  -1.8510406E+00   4.1789351E+00
  -1.5060822E+01  -1.9217677E+00   4.2399921E+00
  -1.5555798E+01  -1.9984958E+00   4.2942114E+00
  -1.6068975E+01  -2.0819871E+00   4.3403397E+00
  -1.6601645E+01  -2.1730978E+00   4.3769665E+00
  -1.7155170E+01  -2.2727900E+00   4.4025135E+00
  -1.7730991E+01  -2.3821442E+00   4.4152241E+00
  -1.8330580E+01  -2.5023797E+00   4.4131579E+00
  -1.8955448E+01  -2.6348741E+00   4.3941879E+00
  -1.9607105E+01  -2.7811875E+00   4.3559971E+00
  -2.0287041E+01  -2.9430966E+00   4.2960858E+00
  -2.0996685E+01  -3.1226320E+00   4.2117729E+00
  -2.1737396E+01  -3.3221259E+00   4.1002049E+00
  -2.2510378E+01  -3.5442655E+00   3.9583583E+00
  -2.3316681E+01  -3.7921722E+00   3.7830369E+00
  -2.4157066E+01  -4.0694661E+00   3.5708859E+00
  -2.5031935E+01  -4.3803706E+00   3.3183980E+00
  -2.5941160E+01  -4.7298155E+00   3.0219393E+00
  -2.6883905E+01  -5.1235628E+00   2.6778100E+00
  -2.7858379E+01  -5.5683393E+00   2.2823527E+00
  -2.8861549E+01  -6.0719843E+00   1.8321197E+00
  -2.9888828E+01  -6.6435900E+00   1.3241111E+00
  -3.0933712E+01  -7.2936029E+00   7.5607109E-01
  -3.1987406E+01  -8.0338631E+00   1.2682492E-01
  -3.3038349E+01  -8.8774548E+00  -5.6336212E-01
  -3.4071690E+01  -9.8382864E+00  -1.3124224E+00
  -3.5068520E+01  -1.0930162E+01  -2.1160655E+00
  -3.6004974E+01  -1.2165171E+01  -2.9671874E+00
  -3.6851215E+01  -1.3551088E+01  -3.8548529E+00
  -3.7570660E+01  -1.5087651E+01  -4.7625151E+00
  -3.8120216E+01  -1.6761730E+01  -5.6651874E+00
  -3.8452621E+01  -1.8541843E+01  -6.5255485E+00
  -3.8522247E+01  -2.0373062E+01  -7.2896357E+00
  -3.8295128E+01  -2.2174114E+01  -7.8836212E+00
  -3.7762844E+01  -2.3838884E+01  -8.2138767E+00
  -3.6957520E+01  -2.5244343E+01  -8.1725340E+00
  -3.5963131E+01  -2.6265299E+01  -7.6493258E+00
  -3.4917645E+01  -2.6793938E+01  -6.5480132E+00
  -3.4002014E+01  -2.6758991E+01  -4.8026085E+00
   5.1455736E-02  -6.7985535E-02   7.4678612E-01
  -6.9479942E-03  -6.2622070E-02   7.4187040E-01
  -5.9742451E-02  -7.1898460E-02   7.2278357E-01
  -1.0149050E-01  -9.2775345E-02   6.9328165E-01
  -1.2948513E-01  -1.2105942E-01   6.5809727E-01
  -1.4376831E-01  -1.5241337E-01   6.2176991E-01
  -1.4632607E-01  -1.8329906E-01   5.8781147E-01
  -1.4011478E-01  -2.1132040E-01   5.5840462E-01
  -1.2823582E-01  -2.3520947E-01   5.3448701E-01
  -1.1337566E-01  -2.5459480E-01   5.1608026E-01
  -9.8958988E+00  -1.1852378E+00   3.2038145E+00
  -1.0231782E+01  -1.2167376E+00   3.2871630E+00
  -1.0577215E+01  -1.2495655E+00   3.3708961E+00
  -1.0932498E+01  -1.2838744E+00   3.4547250E+00
  -1.1297971E+01  -1.3198408E+00   3.5383258E+00
  -1.1674030E+01  -1.3576673E+00   3.6213331E+00
  -1.2061131E+01  -1.3975862E+00   3.7033348E+00
  -1.2459799E+01  -1.4398624E+00   3.7838650E+00
  -1.2870634E+01  -1.4847975E+00   3.8623981E+00
  -1.3294321E+01  -1.5327343E+00   3.9383368E+00
  -1.3731636E+01  -1.5840608E+00   4.0110035E+00
  -1.4183453E+01  -1.6392162E+00   4.0796289E+00
  -1.4650744E+01  -1.6986958E+00   4.1433368E+00
  -1.5134594E+01  -1.7630588E+00   4.2011333E+00
  -1.5636188E+01  -1.8329349E+00   4.2518911E+00
  -1.6156815E+01  -1.9090341E+00   4.2943339E+00
  -1.6697863E+01  -1.9921563E+00   4.3270235E+00
  -1.7260815E+01  -2.0832047E+00   4.3483453E+00
  -1.7847231E+01  -2.1831996E+00   4.3564987E+00
  -1.8458735E+01  -2.2932985E+00   4.3494864E+00
  -1.9097006E+01  -2.4148166E+00   4.3251081E+00
  -1.9763750E+01  -2.5492566E+00   4.2809563E+00
  -2.0460686E+01  -2.6983421E+00   4.2144127E+00
  -2.1189528E+01  -2.8640614E+00   4.1226501E+00
  -2.1951941E+01  -3.0487173E+00   4.0026207E+00
  -2.2749546E+01  -3.2549994E+00   3.8510518E+00
  -2.3583834E+01  -3.4860532E+00   3.6644325E+00
  -2.4456121E+01  -3.7455809E+00   3.4390016E+00
  -2.5367464E+01  -4.0379562E+00   3.1707289E+00
  -2.6318512E+01  -4.3683615E+00   2.8553162E+00
  -2.7309345E+01  -4.7429509E+00   2.4882143E+00
  -2.8339256E+01  -5.1690445E+00   2.0646768E+00
  -2.9406471E+01  -5.6553421E+00   1.5798602E+00
  -3.0507839E+01  -6.2121668E+00   1.0289564E+00
  -3.1638435E+01  -6.8516827E+00   4.0736401E-01
  -3.2791092E+01  -7.5880747E+00  -2.8914562E-01
  -3.3955719E+01  -8.4375639E+00  -1.0642563E+00
  -3.5118370E+01  -9.4181271E+00  -1.9209158E+00
  -3.6259892E+01  -1.0548678E+01  -2.8610284E+00
  -3.7354080E+01  -1.1847420E+01  -3.8847656E+00
  -3.8365429E+01  -1.3328981E+01  -4.9890718E+00
  -3.9246960E+01  -1.4999977E+01  -6.1648359E+00
  -3.9939194E+01  -1.6852943E+01  -7.3921790E+00
  -4.0371849E+01  -1.8858776E+01  -8.6337852E+00
  -4.0470673E+01  -2.0959082E+01  -9.8271542E+00
  -4.0170864E+01  -2.3060562E+01  -1.0878007E+01
  -3.9437244E+01  -2.5034794E+01  -1.1658504E+01
  -3.8287727E+01  -2.6726871E+01  -1.2014212E+01
  -3.6812801E+01  -2.7974606E+01  -1.1782137E+01
  -3.5181618E+01  -2.8636114E+01  -1.0817891E+01
  -3.3627289E+01  -2.8618542E+01  -9.0243845E+00
  -3.2411728E+01  -2.7897751E+01  -6.3711481E+00
  -9.2844963E-03  -3.8301468E-02   8.2541847E-01
  -7.7100754E-02  -4.9268723E-02   7.9877567E-01
  -1.2937927E-01  -7.4442863E-02   7.5737715E-01
  -1.6280174E-01  -1.0817146E-01   7.0845270E-01
  -1.7797756E-01  -1.4491463E-01   6.5869427E-01
  -1.7812157E-01  -1.8033028E-01   6.1304212E-01
  -1.6762352E-01  -2.1166420E-01   5.7432389E-01
  -1.5074444E-01  -2.3766661E-01   5.4353130E-01
  -1.3097572E-01  -2.5818014E-01   5.2037048E-01
  -9.9215498E+00  -1.0807304E+00   3.1936879E+00
  -1.0258583E+01  -1.1087085E+00   3.2756605E+00
  -1.0605317E+01  -1.1378767E+00   3.3579116E+00
  -1.0962070E+01  -1.1683724E+00   3.4401510E+00
  -1.1329209E+01  -1.2003537E+00   3.5220532E+00
  -1.1707161E+01  -1.2340031E+00   3.6032507E+00
  -1.2096413E+01  -1.2695291E+00   3.6833301E+00
  -1.2497523E+01  -1.3071705E+00   3.7618239E+00
  -1.2911133E+01  -1.3471986E+00   3.8382032E+00
  -1.3337971E+01  -1.3899226E+00   3.9118676E+00
  -1.3778862E+01  -1.4356928E+00   3.9821358E+00
  -1.4234734E+01  -1.4849061E+00   4.0482311E+00
  -1.4706621E+01  -1.5380117E+00   4.1092706E+00
  -1.5195672E+01  -1.5955170E+00   4.1642489E+00
  -1.5703147E+01  -1.6579958E+00   4.2120237E+00
  -1.6230421E+01  -1.7260962E+00   4.2513003E+00
  -1.6778978E+01  -1.8005518E+00   4.2806153E+00
  -1.7350407E+01  -1.8821932E+00   4.2983241E+00
  -1.7946392E+01  -1.9719646E+00   4.3025837E+00
  -1.8568703E+01  -2.0709414E+00   4.2913456E+00
  -1.9219183E+01  -2.1803539E+00   4.2623415E+00
  -1.9899740E+01  -2.3016160E+00   4.2130785E+00
  -2.0612329E+01  -2.4363618E+00   4.1408277E+00
  -2.1358938E+01  -2.5864897E+00   4.0426145E+00
  -2.2141577E+01  -2.7542186E+00   3.9152071E+00
  -2.2962275E+01  -2.9421625E+00   3.7550871E+00
  -2.3823009E+01  -3.1534085E+00   3.5584292E+00
  -2.4725704E+01  -3.3916297E+00   3.3210609E+00
  -2.5672129E+01  -3.6612163E+00   3.0384195E+00
  -2.6663818E+01  -3.9674363E+00   2.7055144E+00
  -2.7701918E+01  -4.3166375E+00   2.3168979E+00
  -2.8787001E+01  -4.7164850E+00   1.8666484E+00
  -2.9918850E+01  -5.1762576E+00   1.3483760E+00
  -3.1096142E+01  -5.7071705E+00   7.5522768E-01
  -3.2316071E+01  -6.3227348E+00   7.9871386E-02
  -3.3573795E+01  -7.0390940E+00  -6.8555582E-01
  -3.4861580E+01  -7.8752389E+00  -1.5495605E+00
  -3.6167473E+01  -8.8529510E+00  -2.5213947E+00
  -3.7473274E+01  -9.9962101E+00  -3.6109881E+00
  -3.8751617E+01  -1.1329676E+01  -4.8283057E+00
  -3.9962193E+01  -1.2875755E+01  -6.1814804E+00
  -4.1047665E+01  -1.4649698E+01  -7.6728740E+00
  -4.1930527E+01  -1.6652306E+01  -9.2921467E+00
  -4.2513401E+01  -1.8860277E+01  -1.1005925E+01
  -4.2686069E+01  -2.1215347E+01  -1.2745054E+01
  -4.2342461E+01  -2.3614948E+01  -1.4392503E+01
  -4.1408691E+01  -2.5908857E+01  -1.5777433E+01
  -3.9878601E+01  -2.7907581E+01  -1.6682722E+01
  -3.7846092E+01  -2.9405935E+01  -1.6870813E+01
  -3.5518955E+01  -3.0220400E+01  -1.6126688E+01
  -3.3200768E+01  -3.0230171E+01  -1.4306054E+01
  -3.1239326E+01  -2.9407011E+01  -1.1370231E+01
  -2.4570480E+01  -2.2821098E+01  -5.8943205E+00
  -9.7385406E-02  -3.7967682E-02   8.9258194E-01
  -1.6207123E-01  -6.6637039E-02   8.3551311E-01
  -2.0131111E-01  -1.0487366E-01   7.6872206E-01
  -2.1668530E-01  -1.4584827E-01   7.0187378E-01
  -2.1326160E-01  -1.8444347E-01   6.4173460E-01
  -1.9720745E-01  -2.1771145E-01   5.9183025E-01
  -1.7425728E-01  -2.4452448E-01   5.5303907E-01
  -1.4880657E-01  -2.6501942E-01   5.2454364E-01
  -9.9410248E+00  -9.7207034E-01   3.1824875E+00
  -1.0278994E+01  -9.9634618E-01   3.2632239E+00
  -1.0626790E+01  -1.0216635E+00   3.3441510E+00
  -1.0984758E+01  -1.0481429E+00   3.4249775E+00
  -1.1353285E+01  -1.0759236E+00   3.5053768E+00
  -1.1732823E+01  -1.1051654E+00   3.5849807E+00
  -1.2123888E+01  -1.1360519E+00   3.6633747E+00
  -1.2527070E+01  -1.1687927E+00   3.7400906E+00
  -1.2943046E+01  -1.2036270E+00   3.8145974E+00
  -1.3372584E+01  -1.2408268E+00   3.8862934E+00
  -1.3816553E+01  -1.2807016E+00   3.9544930E+00
  -1.4275929E+01  -1.3236016E+00   4.0184159E+00
  -1.4751803E+01  -1.3699247E+00   4.0771723E+00
  -1.5245381E+01  -1.4201206E+00   4.1297483E+00
  -1.5757997E+01  -1.4746993E+00   4.1749897E+00
  -1.6291100E+01  -1.5342389E+00   4.2115846E+00
  -1.6846262E+01  -1.5993952E+00   4.2380505E+00
  -1.7425177E+01  -1.6709136E+00   4.2527122E+00
  -1.8029642E+01  -1.7496451E+00   4.2536931E+00
  -1.8661568E+01  -1.8365633E+00   4.2388964E+00
  -1.9322958E+01  -1.9327875E+00   4.2059927E+00
  -2.0015911E+01  -2.0396125E+00   4.1524100E+00
  -2.0742613E+01  -2.1585422E+00   4.0753155E+00
  -2.1505333E+01  -2.2913375E+00   3.9715991E+00
  -2.2306414E+01  -2.4400702E+00   3.8378513E+00
  -2.3148296E+01  -2.6071999E+00   3.6703196E+00
  -2.4033466E+01  -2.7956569E+00   3.4648745E+00
  -2.4964460E+01  -3.0089610E+00   3.2169397E+00
  -2.5943817E+01  -3.2513595E+00   2.9214268E+00
  -2.6974009E+01  -3.5280075E+00   2.5726500E+00
  -2.8057343E+01  -3.8451929E+00   2.1642413E+00
  -2.9195841E+01  -4.2106147E+00   1.6890597E+00
  -3.0391060E+01  -4.6337299E+00   1.1390738E+00
  -3.1643833E+01  -5.1261616E+00   5.0521064E-01
  -3.2953953E+01  -5.7021809E+00  -2.2287494E-01
  -3.4319561E+01  -6.3791885E+00  -1.0571645E+00
  -3.5736160E+01  -7.1781602E+00  -2.0117452E+00
  -3.7194954E+01  -8.1238575E+00  -3.1033607E+00
  -3.8680134E+01  -9.2445545E+00  -4.3517480E+00
  -4.0164799E+01  -1.0570835E+01  -5.7792687E+00
  -4.1605419E+01  -1.2132851E+01  -7.4089017E+00
  -4.2935257E+01  -1.3955266E+01  -9.2592850E+00
  -4.4058311E+01  -1.6049118E+01  -1.1335330E+01
  -4.4846954E+01  -1.8400257E+01  -1.3613436E+01
  -4.5148026E+01  -2.0955156E+01  -1.6021912E+01
  -4.4802738E+01  -2.3606983E+01  -1.8420404E+01
  -4.3684120E+01  -2.6187904E+01  -2.0586620E+01
  -4.1748486E+01  -2.8475449E+01  -2.2222054E+01
  -3.9086849E+01  -3.0219858E+01  -2.2987219E+01
  -3.5952087E+01  -3.1191772E+01  -2.2566629E+01
  -3.2738575E+01  -3.1238178E+01  -2.0746759E+01
  -2.9908646E+01  -3.0324636E+01  -1.7475172E+01
  -2.7888584E+01  -2.8544039E+01  -1.2871599E+01
  -3.9307880E+00  -3.7424126E+00  -1.5977669E-01
  -1.9795227E-01  -7.6681137E-02   9.2530632E-01
  -2.4315834E-01  -1.1684418E-01   8.3660316E-01
  -2.5795841E-01  -1.5927792E-01   7.4925280E-01
  -2.4976349E-01  -1.9837666E-01   6.7220688E-01
  -2.2707558E-01  -2.3115063E-01   6.0964537E-01
  -1.9724178E-01  -2.5672960E-01   5.6212211E-01
  -1.6563416E-01  -2.7557373E-01   5.2804494E-01
  -9.9553957E+00  -8.5983217E-01   3.1709859E+00
  -1.0294108E+01  -8.8024938E-01   3.2506394E+00
  -1.0642760E+01  -9.0155011E-01   3.3304119E+00
  -1.1001711E+01  -9.2383701E-01   3.4100118E+00
  -1.1371370E+01  -9.4722861E-01   3.4891117E+00
  -1.1752212E+01  -9.7186106E-01   3.5673435E+00
  -1.2144773E+01  -9.9789083E-01   3.6442924E+00
  -1.2549679E+01  -1.0254967E+00   3.7194893E+00
  -1.2967630E+01  -1.0548829E+00   3.7924037E+00
  -1.3399433E+01  -1.0862817E+00   3.8624310E+00
  -1.3845994E+01  -1.1199576E+00   3.9288845E+00
  -1.4308331E+01  -1.1562108E+00   3.9909799E+00
  -1.4787583E+01  -1.1953825E+00   4.0478225E+00
  -1.5285013E+01  -1.2378590E+00   4.0983915E+00
  -1.5802013E+01  -1.2840799E+00   4.1415219E+00
  -1.6340103E+01  -1.3345436E+00   4.1758904E+00
  -1.6900940E+01  -1.3898177E+00   4.1999950E+00
  -1.7486300E+01  -1.4505503E+00   4.2121367E+00
  -1.8098095E+01  -1.5174822E+00   4.2104077E+00
  -1.8738358E+01  -1.5914652E+00   4.1926694E+00
  -1.9409245E+01  -1.6734836E+00   4.1565385E+00
  -2.0113029E+01  -1.7646798E+00   4.0993719E+00
  -2.0852119E+01  -1.8663894E+00   4.0182428E+00
  -2.1629042E+01  -1.9801843E+00   3.9099171E+00
  -2.2446465E+01  -2.1079259E+00   3.7708230E+00
  -2.3307224E+01  -2.2518377E+00   3.5969920E+00
  -2.4214298E+01  -2.4145894E+00   3.3840084E+00
  -2.5170835E+01  -2.5994108E+00   3.1269190E+00
  -2.6180134E+01  -2.8102353E+00   2.8201306E+00
  -2.7245617E+01  -3.0518801E+00   2.4572875E+00
  -2.8370806E+01  -3.3302855E+00   2.0311246E+00
  -2.9559221E+01  -3.6528053E+00   1.5332842E+00
  -3.0814323E+01  -4.0285902E+00   9.5407832E-01
  -3.2139332E+01  -4.4690499E+00   2.8215373E-01
  -3.3536942E+01  -4.9884062E+00  -4.9600226E-01
  -3.5008789E+01  -5.6043181E+00  -1.3967617E+00
  -3.6554367E+01  -6.3385077E+00  -2.4403090E+00
  -3.8169102E+01  -7.2172422E+00  -3.6517365E+00
  -3.9841003E+01  -8.2714291E+00  -5.0620260E+00
  -4.1545502E+01  -9.5358486E+00  -6.7082047E+00
  -4.3237923E+01  -1.1046862E+01  -8.6315117E+00
  -4.4844086E+01  -1.2837631E+01  -1.0871732E+01
  -4.6250481E+01  -1.4929728E+01  -1.3455397E+01
  -4.7297928E+01  -1.7320354E+01  -1.6375912E+01
  -4.7784969E+01  -1.9965319E+01  -1.9565378E+01
  -4.7489685E+01  -2.2760658E+01  -2.2862331E+01
  -4.6216969E+01  -2.5529654E+01  -2.5986677E+01
  -4.3869835E+01  -2.8025646E+01  -2.8540131E+01
  -4.0526844E+01  -2.9961040E+01  -3.0051020E+01
  -3.6489937E+01  -3.1064386E+01  -3.0068523E+01
  -3.2264153E+01  -3.1151426E+01  -2.8282883E+01
  -2.8456211E+01  -3.0180756E+01  -2.4620722E+01
  -2.5624607E+01  -2.8266594E+01  -1.9265877E+01
  -2.4145792E+01  -2.5640347E+01  -1.2591161E+01
  -2.3353577E-01  -1.1243057E-01   1.0200195E+00
  -2.8463554E-01  -1.4977741E-01   9.0663433E-01
  -2.9813576E-01  -1.8901157E-01   7.9664516E-01
  -2.8440571E-01  -2.2438812E-01   7.0146465E-01
  -2.5451851E-01  -2.5314569E-01   6.2578917E-01
  -2.1758556E-01  -2.7474785E-01   5.6956267E-01
  -1.7987537E-01  -2.8991795E-01   5.3016877E-01
  -9.9656506E+00  -7.4461770E-01   3.1600876E+00
  -1.0304938E+01  -7.6104438E-01   3.2388270E+00
  -1.0654258E+01  -7.7818811E-01   3.3176286E+00
  -1.1013984E+01  -7.9613268E-01   3.3962009E+00
  -1.1384542E+01  -8.1497455E-01   3.4742165E+00
  -1.1766421E+01  -8.3482504E-01   3.5513072E+00
  -1.2160188E+01  -8.5581160E-01   3.6270585E+00
  -1.2566480E+01  -8.7808037E-01   3.7010009E+00
  -1.2986030E+01  -9.0179807E-01   3.7726033E+00
  -1.3419672E+01  -9.2715496E-01   3.8412614E+00
  -1.3868345E+01  -9.5436734E-01   3.9062860E+00
  -1.4333104E+01  -9.8368150E-01   3.9668908E+00
  -1.4815127E+01  -1.0153772E+00   4.0221772E+00
  -1.5315726E+01  -1.0497721E+00   4.0711184E+00
  -1.5836343E+01  -1.0872282E+00   4.1125426E+00
  -1.6378559E+01  -1.1281570E+00   4.1451144E+00
  -1.6944098E+01  -1.1730281E+00   4.1673160E+00
  -1.7534817E+01  -1.2223788E+00   4.1774316E+00
  -1.8152725E+01  -1.2768258E+00   4.1735239E+00
  -1.8799961E+01  -1.3370801E+00   4.1534195E+00
  -1.9478817E+01  -1.4039663E+00   4.1146908E+00
  -2.0191725E+01  -1.4784455E+00   4.0546303E+00
  -2.0941280E+01  -1.5616467E+00   3.9702320E+00
  -2.1730253E+01  -1.6549040E+00   3.8581529E+00
  -2.2561602E+01  -1.7598064E+00   3.7146783E+00
  -2.3438524E+01  -1.8782609E+00   3.5356481E+00
  -2.4364452E+01  -2.0125723E+00   3.3163927E+00
  -2.5343102E+01  -2.1655459E+00   3.0516181E+00
  -2.6378487E+01  -2.3406229E+00   2.7352762E+00
  -2.7474941E+01  -2.5420513E+00   2.3603971E+00
  -2.8637142E+01  -2.7751122E+00   1.9188814E+00
  -2.9870096E+01  -3.0464077E+00   1.4012321E+00
  -3.1179150E+01  -3.3642387E+00   7.9618025E-01