# vtk DataFile Version 3.0
SM polar seed points transformed to GSW coordinates
ASCII
DATASET POLYDATA
POINTS      288 float
       0.837046       0.000000       1.244730
       0.811550       0.194114       1.246477
       0.736800       0.375000       1.251599
       0.617890       0.530330       1.259747
       0.462923       0.649519       1.270365
       0.282461       0.724444       1.282730
       0.088800       0.750000       1.296000
      -0.104860       0.724444       1.309269
      -0.285322       0.649519       1.321634
      -0.440289       0.530330       1.332252
      -0.559199       0.375000       1.340400
      -0.633949       0.194114       1.345521
      -0.659445      -0.000000       1.347268
      -0.633949      -0.194114       1.345521
      -0.559199      -0.375000       1.340400
      -0.440289      -0.530330       1.332252
      -0.285322      -0.649519       1.321634
      -0.104860      -0.724444       1.309269
       0.088800      -0.750000       1.296000
       0.282461      -0.724444       1.282730
       0.462923      -0.649519       1.270365
       0.617890      -0.530330       1.259747
       0.736800      -0.375000       1.251599
       0.811550      -0.194114       1.246477
       0.725375       0.000000       1.312947
       0.703825       0.164072       1.314424
       0.640644       0.316964       1.318753
       0.540137       0.448254       1.325640
       0.409153       0.548997       1.334614
       0.256620       0.612327       1.345066
       0.092931       0.633927       1.356282
      -0.070758       0.612327       1.367497
      -0.223291       0.548997       1.377949
      -0.354275       0.448254       1.386924
      -0.454782       0.316964       1.393810
      -0.517964       0.164073       1.398139
      -0.539514      -0.000000       1.399616
      -0.517964      -0.164073       1.398139
      -0.454782      -0.316964       1.393810
      -0.354275      -0.448254       1.386924
      -0.223291      -0.548997       1.377949
      -0.070758      -0.612327       1.367497
       0.092931      -0.633927       1.356282
       0.256620      -0.612327       1.345066
       0.409153      -0.548997       1.334614
       0.540137      -0.448254       1.325640
       0.640644      -0.316964       1.318753
       0.703825      -0.164073       1.314424
       0.608184       0.000000       1.371172
       0.590744       0.132782       1.372367
       0.539612       0.256515       1.375870
       0.458273       0.362767       1.381444
       0.352269       0.444297       1.388707
       0.228826       0.495549       1.397165
       0.096354       0.513030       1.406242
      -0.036117       0.495549       1.415319
      -0.159561       0.444297       1.423777
      -0.265564       0.362767       1.431040
      -0.346904       0.256515       1.436613
      -0.398036       0.132782       1.440117
      -0.415476      -0.000000       1.441312
      -0.398036      -0.132782       1.440117
      -0.346904      -0.256515       1.436613
      -0.265564      -0.362767       1.431040
      -0.159561      -0.444297       1.423777
      -0.036117      -0.495549       1.415319
       0.096354      -0.513030       1.406242
       0.228825      -0.495549       1.397165
       0.352269      -0.444297       1.388707
       0.458273      -0.362767       1.381444
       0.539612      -0.256515       1.375870
       0.590744      -0.132782       1.372367
       0.486364       0.000000       1.418961
       0.473167       0.100481       1.419865
       0.434473       0.194114       1.422516
       0.372921       0.274519       1.426734
       0.292704       0.336216       1.432230
       0.199290       0.375000       1.438631
       0.099044       0.388229       1.445500
      -0.001202       0.375000       1.452368
      -0.094616       0.336216       1.458769
      -0.174833       0.274519       1.464265
      -0.236385       0.194114       1.468483
      -0.275079       0.100481       1.471134
      -0.288276      -0.000000       1.472038
      -0.275079      -0.100481       1.471134
      -0.236385      -0.194114       1.468483
      -0.174833      -0.274519       1.464265
      -0.094616      -0.336216       1.458769
      -0.001202      -0.375000       1.452368
       0.099044      -0.388229       1.445500
       0.199290      -0.375000       1.438631
       0.292704      -0.336216       1.432230
       0.372921      -0.274519       1.426734
       0.434473      -0.194114       1.422516
       0.473167      -0.100481       1.419865
       0.360843       0.000000       1.455951
       0.351989       0.067415       1.456557
       0.326028       0.130236       1.458336
       0.284731       0.184182       1.461166
       0.230912       0.225576       1.464853
       0.168238       0.251597       1.469148
       0.100980       0.260472       1.473756
       0.033723       0.251597       1.478365
      -0.028951       0.225576       1.482659
      -0.082771       0.184182       1.486346
      -0.124068       0.130236       1.489176
      -0.150028       0.067415       1.490955
      -0.158883      -0.000000       1.491562
      -0.150028      -0.067415       1.490955
      -0.124068      -0.130236       1.489176
      -0.082771      -0.184182       1.486346
      -0.028951      -0.225576       1.482659
       0.033723      -0.251597       1.478365
       0.100980      -0.260472       1.473756
       0.168238      -0.251597       1.469148
       0.230912      -0.225576       1.464853
       0.284731      -0.184182       1.461166
       0.326028      -0.130236       1.458336
       0.351989      -0.067415       1.456557
       0.232576       0.000000       1.481860
       0.228131       0.033836       1.482164
       0.215102       0.065367       1.483057
       0.194374       0.092443       1.484477
       0.167362       0.113219       1.486328
       0.135905       0.126279       1.488484
       0.102148       0.130734       1.490797
       0.068391       0.126279       1.493110
       0.036934       0.113219       1.495265
       0.009921       0.092443       1.497116
      -0.010806       0.065367       1.498536
      -0.023836       0.033836       1.499429
      -0.028280      -0.000000       1.499733
      -0.023836      -0.033836       1.499429
      -0.010806      -0.065367       1.498536
       0.009921      -0.092443       1.497116
       0.036934      -0.113219       1.495265
       0.068391      -0.126279       1.493110
       0.102148      -0.130734       1.490797
       0.135905      -0.126279       1.488484
       0.167362      -0.113219       1.486328
       0.194374      -0.092443       1.484477
       0.215102      -0.065367       1.483057
       0.228131      -0.033836       1.482164
       0.659445       0.000000      -1.347268
       0.633949       0.194114      -1.345521
       0.559199       0.375000      -1.340400
       0.440289       0.530330      -1.332252
       0.285322       0.649519      -1.321634
       0.104860       0.724444      -1.309269
      -0.088800       0.750000      -1.296000
      -0.282461       0.724444      -1.282730
      -0.462923       0.649519      -1.270365
      -0.617890       0.530330      -1.259747
      -0.736800       0.375000      -1.251599
      -0.811550       0.194114      -1.246477
      -0.837046      -0.000000      -1.244730
      -0.811550      -0.194114      -1.246477
      -0.736800      -0.375000      -1.251599
      -0.617890      -0.530330      -1.259747
      -0.462923      -0.649519      -1.270365
      -0.282461      -0.724444      -1.282730
      -0.088800      -0.750000      -1.296000
       0.104860      -0.724444      -1.309269
       0.285322      -0.649519      -1.321634
       0.440289      -0.530330      -1.332252
       0.559199      -0.375000      -1.340400
       0.633949      -0.194114      -1.345521
       0.539514       0.000000      -1.399616
       0.517964       0.164072      -1.398139
       0.454782       0.316964      -1.393810
       0.354275       0.448254      -1.386924
       0.223291       0.548997      -1.377949
       0.070758       0.612327      -1.367497
      -0.092931       0.633927      -1.356282
      -0.256620       0.612327      -1.345066
      -0.409153       0.548997      -1.334614
      -0.540137       0.448254      -1.325640
      -0.640644       0.316964      -1.318753
      -0.703825       0.164073      -1.314424
      -0.725375      -0.000000      -1.312947
      -0.703825      -0.164073      -1.314424
      -0.640644      -0.316964      -1.318753
      -0.540137      -0.448254      -1.325640
      -0.409153      -0.548997      -1.334614
      -0.256620      -0.612327      -1.345066
      -0.092931      -0.633927      -1.356282
       0.070758      -0.612327      -1.367497
       0.223291      -0.548997      -1.377949
       0.354275      -0.448254      -1.386924
       0.454782      -0.316964      -1.393810
       0.517964      -0.164073      -1.398139
       0.415476       0.000000      -1.441312
       0.398036       0.132782      -1.440117
       0.346904       0.256515      -1.436613
       0.265564       0.362767      -1.431040
       0.159561       0.444297      -1.423777
       0.036117       0.495549      -1.415319
      -0.096354       0.513030      -1.406242
      -0.228826       0.495549      -1.397165
      -0.352269       0.444297      -1.388707
      -0.458273       0.362767      -1.381444
      -0.539612       0.256515      -1.375870
      -0.590744       0.132782      -1.372367
      -0.608184      -0.000000      -1.371172
      -0.590744      -0.132782      -1.372367
      -0.539612      -0.256515      -1.375870
      -0.458273      -0.362767      -1.381444
      -0.352269      -0.444297      -1.388707
      -0.228825      -0.495549      -1.397165
      -0.096354      -0.513030      -1.406242
       0.036117      -0.495549      -1.415319
       0.159561      -0.444297      -1.423777
       0.265564      -0.362767      -1.431040
       0.346904      -0.256515      -1.436613
       0.398036      -0.132782      -1.440117
       0.288276       0.000000      -1.472038
       0.275079       0.100481      -1.471134
       0.236385       0.194114      -1.468483
       0.174833       0.274519      -1.464265
       0.094616       0.336216      -1.458769
       0.001202       0.375000      -1.452368
      -0.099044       0.388229      -1.445500
      -0.199290       0.375000      -1.438631
      -0.292704       0.336216      -1.432230
      -0.372921       0.274519      -1.426734
      -0.434473       0.194114      -1.422516
      -0.473167       0.100481      -1.419865
      -0.486364      -0.000000      -1.418961
      -0.473167      -0.100481      -1.419865
      -0.434473      -0.194114      -1.422516
      -0.372921      -0.274519      -1.426734
      -0.292704      -0.336216      -1.432230
      -0.199290      -0.375000      -1.438631
      -0.099044      -0.388229      -1.445500
       0.001202      -0.375000      -1.452368
       0.094616      -0.336216      -1.458769
       0.174833      -0.274519      -1.464265
       0.236385      -0.194114      -1.468483
       0.275079      -0.100481      -1.471134
       0.158883       0.000000      -1.491562
       0.150028       0.067415      -1.490955
       0.124068       0.130236      -1.489176
       0.082771       0.184182      -1.486346
       0.028951       0.225576      -1.482659
      -0.033723       0.251597      -1.478365
      -0.100980       0.260472      -1.473756
      -0.168238       0.251597      -1.469148
      -0.230912       0.225576      -1.464853
      -0.284731       0.184182      -1.461166
      -0.326028       0.130236      -1.458336
      -0.351989       0.067415      -1.456557
      -0.360843      -0.000000      -1.455951
      -0.351989      -0.067415      -1.456557
      -0.326028      -0.130236      -1.458336
      -0.284731      -0.184182      -1.461166
      -0.230912      -0.225576      -1.464853
      -0.168238      -0.251597      -1.469148
      -0.100980      -0.260472      -1.473756
      -0.033723      -0.251597      -1.478365
       0.028951      -0.225576      -1.482659
       0.082771      -0.184182      -1.486346
       0.124068      -0.130236      -1.489176
       0.150028      -0.067415      -1.490955
       0.028280       0.000000      -1.499733
       0.023836       0.033836      -1.499429
       0.010806       0.065367      -1.498536
      -0.009921       0.092443      -1.497116
      -0.036934       0.113219      -1.495265
      -0.068391       0.126279      -1.493110
      -0.102148       0.130734      -1.490797
      -0.135905       0.126279      -1.488484
      -0.167362       0.113219      -1.486328
      -0.194374       0.092443      -1.484477
      -0.215102       0.065367      -1.483057
      -0.228131       0.033836      -1.482164
      -0.232576      -0.000000      -1.481860
      -0.228131      -0.033836      -1.482164
      -0.215102      -0.065367      -1.483057
      -0.194374      -0.092443      -1.484477
      -0.167362      -0.113219      -1.486328
      -0.135905      -0.126279      -1.488484
      -0.102148      -0.130734      -1.490797
      -0.068391      -0.126279      -1.493110
      -0.036934      -0.113219      -1.495265
      -0.009921      -0.092443      -1.497116
       0.010806      -0.065367      -1.498536
       0.023836      -0.033836      -1.499429
VERTICES      288     576
 1        0
 1        1
 1        2
 1        3
 1        4
 1        5
 1        6
 1        7
 1        8
 1        9
 1       10
 1       11
 1       12
 1       13
 1       14
 1       15
 1       16
 1       17
 1       18
 1       19
 1       20
 1       21
 1       22
 1       23
 1       24
 1       25
 1       26
 1       27
 1       28
 1       29
 1       30
 1       31
 1       32
 1       33
 1       34
 1       35
 1       36
 1       37
 1       38
 1       39
 1       40
 1       41
 1       42
 1       43
 1       44
 1       45
 1       46
 1       47
 1       48
 1       49
 1       50
 1       51
 1       52
 1       53
 1       54
 1       55
 1       56
 1       57
 1       58
 1       59
 1       60
 1       61
 1       62
 1       63
 1       64
 1       65
 1       66
 1       67
 1       68
 1       69
 1       70
 1       71
 1       72
 1       73
 1       74
 1       75
 1       76
 1       77
 1       78
 1       79
 1       80
 1       81
 1       82
 1       83
 1       84
 1       85
 1       86
 1       87
 1       88
 1       89
 1       90
 1       91
 1       92
 1       93
 1       94
 1       95
 1       96
 1       97
 1       98
 1       99
 1      100
 1      101
 1      102
 1      103
 1      104
 1      105
 1      106
 1      107
 1      108
 1      109
 1      110
 1      111
 1      112
 1      113
 1      114
 1      115
 1      116
 1      117
 1      118
 1      119
 1      120
 1      121
 1      122
 1      123
 1      124
 1      125
 1      126
 1      127
 1      128
 1      129
 1      130
 1      131
 1      132
 1      133
 1      134
 1      135
 1      136
 1      137
 1      138
 1      139
 1      140
 1      141
 1      142
 1      143
 1      144
 1      145
 1      146
 1      147
 1      148
 1      149
 1      150
 1      151
 1      152
 1      153
 1      154
 1      155
 1      156
 1      157
 1      158
 1      159
 1      160
 1      161
 1      162
 1      163
 1      164
 1      165
 1      166
 1      167
 1      168
 1      169
 1      170
 1      171
 1      172
 1      173
 1      174
 1      175
 1      176
 1      177
 1      178
 1      179
 1      180
 1      181
 1      182
 1      183
 1      184
 1      185
 1      186
 1      187
 1      188
 1      189
 1      190
 1      191
 1      192
 1      193
 1      194
 1      195
 1      196
 1      197
 1      198
 1      199
 1      200
 1      201
 1      202
 1      203
 1      204
 1      205
 1      206
 1      207
 1      208
 1      209
 1      210
 1      211
 1      212
 1      213
 1      214
 1      215
 1      216
 1      217
 1      218
 1      219
 1      220
 1      221
 1      222
 1      223
 1      224
 1      225
 1      226
 1      227
 1      228
 1      229
 1      230
 1      231
 1      232
 1      233
 1      234
 1      235
 1      236
 1      237
 1      238
 1      239
 1      240
 1      241
 1      242
 1      243
 1      244
 1      245
 1      246
 1      247
 1      248
 1      249
 1      250
 1      251
 1      252
 1      253
 1      254
 1      255
 1      256
 1      257
 1      258
 1      259
 1      260
 1      261
 1      262
 1      263
 1      264
 1      265
 1      266
 1      267
 1      268
 1      269
 1      270
 1      271
 1      272
 1      273
 1      274
 1      275
 1      276
 1      277
 1      278
 1      279
 1      280
 1      281
 1      282
 1      283
 1      284
 1      285
 1      286
 1      287
POINT_DATA      288
SCALARS hemisphere int 1
LOOKUP_TABLE default
 1
 1
 1
 1
 1
 1
 1
 1
 1
 1
 1
 1
 1
 1
 1
 1
 1
 1
 1
 1
 1
 1
 1
 1
 1
 1
 1
 1
 1
 1
 1
 1
 1
 1
 1
 1
 1
 1
 1
 1
 1
 1
 1
 1
 1
 1
 1
 1
 1
 1
 1
 1
 1
 1
 1
 1
 1
 1
 1
 1
 1
 1
 1
 1
 1
 1
 1
 1
 1
 1
 1
 1
 1
 1
 1
 1
 1
 1
 1
 1
 1
 1
 1
 1
 1
 1
 1
 1
 1
 1
 1
 1
 1
 1
 1
 1
 1
 1
 1
 1
 1
 1
 1
 1
 1
 1
 1
 1
 1
 1
 1
 1
 1
 1
 1
 1
 1
 1
 1
 1
 1
 1
 1
 1
 1
 1
 1
 1
 1
 1
 1
 1
 1
 1
 1
 1
 1
 1
 1
 1
 1
 1
 1
 1
-1
-1
-1
-1
-1
-1
-1
-1
-1
-1
-1
-1
-1
-1
-1
-1
-1
-1
-1
-1
-1
-1
-1
-1
-1
-1
-1
-1
-1
-1
-1
-1
-1
-1
-1
-1
-1
-1
-1
-1
-1
-1
-1
-1
-1
-1
-1
-1
-1
-1
-1
-1
-1
-1
-1
-1
-1
-1
-1
-1
-1
-1
-1
-1
-1
-1
-1
-1
-1
-1
-1
-1
-1
-1
-1
-1
-1
-1
-1
-1
-1
-1
-1
-1
-1
-1
-1
-1
-1
-1
-1
-1
-1
-1
-1
-1
-1
-1
-1
-1
-1
-1
-1
-1
-1
-1
-1
-1
-1
-1
-1
-1
-1
-1
-1
-1
-1
-1
-1
-1
-1
-1
-1
-1
-1
-1
-1
-1
-1
-1
-1
-1
-1
-1
-1
-1
-1
-1
-1
-1
-1
-1
-1
-1
