# vtk DataFile Version 3.0
T01 + IGRF magnetic field in GSW coordinates
ASCII
DATASET STRUCTURED_GRID
DIMENSIONS     61    21    21
POINTS    26901 float
     -50.000000     -10.000000     -10.000000
     -49.000000     -10.000000     -10.000000
     -48.000000     -10.000000     -10.000000
     -47.000000     -10.000000     -10.000000
     -46.000000     -10.000000     -10.000000
     -45.000000     -10.000000     -10.000000
     -44.000000     -10.000000     -10.000000
     -43.000000     -10.000000     -10.000000
     -42.000000     -10.000000     -10.000000
     -41.000000     -10.000000     -10.000000
     -40.000000     -10.000000     -10.000000
     -39.000000     -10.000000     -10.000000
     -38.000000     -10.000000     -10.000000
     -37.000000     -10.000000     -10.000000
     -36.000000     -10.000000     -10.000000
     -35.000000     -10.000000     -10.000000
     -34.000000     -10.000000     -10.000000
     -33.000000     -10.000000     -10.000000
     -32.000000     -10.000000     -10.000000
     -31.000000     -10.000000     -10.000000
     -30.000000     -10.000000     -10.000000
     -29.000000     -10.000000     -10.000000
     -28.000000     -10.000000     -10.000000
     -27.000000     -10.000000     -10.000000
     -26.000000     -10.000000     -10.000000
     -25.000000     -10.000000     -10.000000
     -24.000000     -10.000000     -10.000000
     -23.000000     -10.000000     -10.000000
     -22.000000     -10.000000     -10.000000
     -21.000000     -10.000000     -10.000000
     -20.000000     -10.000000     -10.000000
     -19.000000     -10.000000     -10.000000
     -18.000000     -10.000000     -10.000000
     -17.000000     -10.000000     -10.000000
     -16.000000     -10.000000     -10.000000
     -15.000000     -10.000000     -10.000000
     -14.000000     -10.000000     -10.000000
     -13.000000     -10.000000     -10.000000
     -12.000000     -10.000000     -10.000000
     -11.000000     -10.000000     -10.000000
     -10.000000     -10.000000     -10.000000
      -9.000000     -10.000000     -10.000000
      -8.000000     -10.000000     -10.000000
      -7.000000     -10.000000     -10.000000
      -6.000000     -10.000000     -10.000000
      -5.000000     -10.000000     -10.000000
      -4.000000     -10.000000     -10.000000
      -3.000000     -10.000000     -10.000000
      -2.000000     -10.000000     -10.000000
      -1.000000     -10.000000     -10.000000
       0.000000     -10.000000     -10.000000
       1.000000     -10.000000     -10.000000
       2.000000     -10.000000     -10.000000
       3.000000     -10.000000     -10.000000
       4.000000     -10.000000     -10.000000
       5.000000     -10.000000     -10.000000
       6.000000     -10.000000     -10.000000
       7.000000     -10.000000     -10.000000
       8.000000     -10.000000     -10.000000
       9.000000     -10.000000     -10.000000
      10.000000     -10.000000     -10.000000
     -50.000000      -9.000000     -10.000000
     -49.000000      -9.000000     -10.000000
     -48.000000      -9.000000     -10.000000
     -47.000000      -9.000000     -10.000000
     -46.000000      -9.000000     -10.000000
     -45.000000      -9.000000     -10.000000
     -44.000000      -9.000000     -10.000000
     -43.000000      -9.000000     -10.000000
     -42.000000      -9.000000     -10.000000
     -41.000000      -9.000000     -10.000000
     -40.000000      -9.000000     -10.000000
     -39.000000      -9.000000     -10.000000
     -38.000000      -9.000000     -10.000000
     -37.000000      -9.000000     -10.000000
     -36.000000      -9.000000     -10.000000
     -35.000000      -9.000000     -10.000000
     -34.000000      -9.000000     -10.000000
     -33.000000      -9.000000     -10.000000
     -32.000000      -9.000000     -10.000000
     -31.000000      -9.000000     -10.000000
     -30.000000      -9.000000     -10.000000
     -29.000000      -9.000000     -10.000000
     -28.000000      -9.000000     -10.000000
     -27.000000      -9.000000     -10.000000
     -26.000000      -9.000000     -10.000000
     -25.000000      -9.000000     -10.000000
     -24.000000      -9.000000     -10.000000
     -23.000000      -9.000000     -10.000000
     -22.000000      -9.000000     -10.000000
     -21.000000      -9.000000     -10.000000
     -20.000000      -9.000000     -10.000000
     -19.000000      -9.000000     -10.000000
     -18.000000      -9.000000     -10.000000
     -17.000000      -9.000000     -10.000000
     -16.000000      -9.000000     -10.000000
     -15.000000      -9.000000     -10.000000
     -14.000000      -9.000000     -10.000000
     -13.000000      -9.000000     -10.000000
     -12.000000      -9.000000     -10.000000
     -11.000000      -9.000000     -10.000000
     -10.000000      -9.000000     -10.000000
      -9.000000      -9.000000     -10.000000
      -8.000000      -9.000000     -10.000000
      -7.000000      -9.000000     -10.000000
      -6.000000      -9.000000     -10.000000
      -5.000000      -9.000000     -10.000000
      -4.000000      -9.000000     -10.000000
      -3.000000      -9.000000     -10.000000
      -2.000000      -9.000000     -10.000000
      -1.000000      -9.000000     -10.000000
       0.000000      -9.000000     -10.000000
       1.000000      -9.000000     -10.000000
       2.000000      -9.000000     -10.000000
       3.000000      -9.000000     -10.000000
       4.000000      -9.000000     -10.000000
       5.000000      -9.000000     -10.000000
       6.000000      -9.000000     -10.000000
       7.000000      -9.000000     -10.000000
       8.000000      -9.000000     -10.000000
       9.000000      -9.000000     -10.000000
      10.000000      -9.000000     -10.000000
     -50.000000      -8.000000     -10.000000
     -49.000000      -8.000000     -10.000000
     -48.000000      -8.000000     -10.000000
     -47.000000      -8.000000     -10.000000
     -46.000000      -8.000000     -10.000000
     -45.000000      -8.000000     -10.000000
     -44.000000      -8.000000     -10.000000
     -43.000000      -8.000000     -10.000000
     -42.000000      -8.000000     -10.000000
     -41.000000      -8.000000     -10.000000
     -40.000000      -8.000000     -10.000000
     -39.000000      -8.000000     -10.000000
     -38.000000      -8.000000     -10.000000
     -37.000000      -8.000000     -10.000000
     -36.000000      -8.000000     -10.000000
     -35.000000      -8.000000     -10.000000
     -34.000000      -8.000000     -10.000000
     -33.000000      -8.000000     -10.000000
     -32.000000      -8.000000     -10.000000
     -31.000000      -8.000000     -10.000000
     -30.000000      -8.000000     -10.000000
     -29.000000      -8.000000     -10.000000
     -28.000000      -8.000000     -10.000000
     -27.000000      -8.000000     -10.000000
     -26.000000      -8.000000     -10.000000
     -25.000000      -8.000000     -10.000000
     -24.000000      -8.000000     -10.000000
     -23.000000      -8.000000     -10.000000
     -22.000000      -8.000000     -10.000000
     -21.000000      -8.000000     -10.000000
     -20.000000      -8.000000     -10.000000
     -19.000000      -8.000000     -10.000000
     -18.000000      -8.000000     -10.000000
     -17.000000      -8.000000     -10.000000
     -16.000000      -8.000000     -10.000000
     -15.000000      -8.000000     -10.000000
     -14.000000      -8.000000     -10.000000
     -13.000000      -8.000000     -10.000000
     -12.000000      -8.000000     -10.000000
     -11.000000      -8.000000     -10.000000
     -10.000000      -8.000000     -10.000000
      -9.000000      -8.000000     -10.000000
      -8.000000      -8.000000     -10.000000
      -7.000000      -8.000000     -10.000000
      -6.000000      -8.000000     -10.000000
      -5.000000      -8.000000     -10.000000
      -4.000000      -8.000000     -10.000000
      -3.000000      -8.000000     -10.000000
      -2.000000      -8.000000     -10.000000
      -1.000000      -8.000000     -10.000000
       0.000000      -8.000000     -10.000000
       1.000000      -8.000000     -10.000000
       2.000000      -8.000000     -10.000000
       3.000000      -8.000000     -10.000000
       4.000000      -8.000000     -10.000000
       5.000000      -8.000000     -10.000000
       6.000000      -8.000000     -10.000000
       7.000000      -8.000000     -10.000000
       8.000000      -8.000000     -10.000000
       9.000000      -8.000000     -10.000000
      10.000000      -8.000000     -10.000000
     -50.000000      -7.000000     -10.000000
     -49.000000      -7.000000     -10.000000
     -48.000000      -7.000000     -10.000000
     -47.000000      -7.000000     -10.000000
     -46.000000      -7.000000     -10.000000
     -45.000000      -7.000000     -10.000000
     -44.000000      -7.000000     -10.000000
     -43.000000      -7.000000     -10.000000
     -42.000000      -7.000000     -10.000000
     -41.000000      -7.000000     -10.000000
     -40.000000      -7.000000     -10.000000
     -39.000000      -7.000000     -10.000000
     -38.000000      -7.000000     -10.000000
     -37.000000      -7.000000     -10.000000
     -36.000000      -7.000000     -10.000000
     -35.000000      -7.000000     -10.000000
     -34.000000      -7.000000     -10.000000
     -33.000000      -7.000000     -10.000000
     -32.000000      -7.000000     -10.000000
     -31.000000      -7.000000     -10.000000
     -30.000000      -7.000000     -10.000000
     -29.000000      -7.000000     -10.000000
     -28.000000      -7.000000     -10.000000
     -27.000000      -7.000000     -10.000000
     -26.000000      -7.000000     -10.000000
     -25.000000      -7.000000     -10.000000
[...]
POINT_DATA    26901
VECTORS B_total float
  -9.4091692E+00  -1.2351221E+00   3.2525024E+00
  -9.7324305E+00  -1.2692240E+00   3.3376541E+00
  -1.0065078E+01  -1.3049569E+00   3.4234145E+00
  -1.0407391E+01  -1.3425146E+00   3.5095339E+00
  -1.0759690E+01  -1.3821193E+00   3.5957317E+00
  -1.1122346E+01  -1.4240242E+00   3.6816931E+00
  -1.1495782E+01  -1.4685184E+00   3.7670636E+00
  -1.1880486E+01  -1.5159299E+00   3.8514440E+00
  -1.2277013E+01  -1.5666307E+00   3.9343824E+00
  -1.2685998E+01  -1.6210409E+00   4.0153670E+00
  -1.3108158E+01  -1.6796353E+00   4.0938163E+00
  -1.3544298E+01  -1.7429475E+00   4.1690683E+00
  -1.3995317E+01  -1.8115780E+00   4.2403688E+00
  -1.4462213E+01  -1.8862004E+00   4.3068581E+00
  -1.4946071E+01  -1.9675694E+00   4.3675570E+00
  -1.5448075E+01  -2.0565288E+00   4.4213548E+00
  -1.5969492E+01  -2.1540225E+00   4.4669924E+00
  -1.6511658E+01  -2.2611046E+00   4.5030541E+00
  -1.7075972E+01  -2.3789523E+00   4.5279536E+00
  -1.7663870E+01  -2.5088809E+00   4.5399308E+00
  -1.8276808E+01  -2.6523621E+00   4.5370450E+00
  -1.8916224E+01  -2.8110428E+00   4.5171781E+00
  -1.9583525E+01  -2.9867740E+00   4.4780397E+00
  -2.0280046E+01  -3.1816387E+00   4.4171734E+00
  -2.1007011E+01  -3.3979912E+00   4.3319678E+00
  -2.1765507E+01  -3.6385028E+00   4.2196655E+00
  -2.2556406E+01  -3.9062073E+00   4.0773807E+00
  -2.3380318E+01  -4.2045727E+00   3.9020965E+00
  -2.4237474E+01  -4.5375614E+00   3.6906891E+00
  -2.5127590E+01  -4.9097071E+00   3.4399581E+00
  -2.6049700E+01  -5.3262005E+00   3.1466908E+00
  -2.7001917E+01  -5.7929645E+00   2.8077772E+00
  -2.7981184E+01  -6.3167419E+00   2.4203906E+00
  -2.8982994E+01  -6.9051628E+00   1.9822536E+00
  -3.0001118E+01  -7.5667868E+00   1.4919697E+00
  -3.1027361E+01  -8.3110790E+00   9.4941247E-01
  -3.2051319E+01  -9.1482773E+00   3.5611707E-01
  -3.3060165E+01  -1.0089032E+01  -2.8436548E-01
  -3.4038357E+01  -1.1143720E+01  -9.6616125E-01
  -3.4967281E+01  -1.2321228E+01  -1.6808006E+00
  -3.5824821E+01  -1.3627063E+01  -2.4168339E+00
  -3.6585007E+01  -1.5060614E+01  -3.1590924E+00
  -3.7218174E+01  -1.6611610E+01  -3.8873506E+00
  -3.7692463E+01  -1.8256111E+01  -4.5742555E+00
  -3.7977444E+01  -1.9952728E+01  -5.1827950E+00
  -3.8050655E+01  -2.1640381E+01  -5.6641450E+00
  -3.7906868E+01  -2.3239033E+01  -5.9572344E+00
  -3.7568569E+01  -2.4654896E+01  -5.9914937E+00
  -3.7094772E+01  -2.5790424E+01  -5.6934609E+00
  -3.6584534E+01  -2.6557991E+01  -4.9965930E+00
  -9.8950788E-02  -4.0257740E-01   4.1599655E-01
  -8.7125540E-02  -4.2721844E-01   4.0335131E-01
  -6.8905115E-02  -4.4723225E-01   3.9419460E-01
  -4.6482086E-02  -4.6076965E-01   3.8961744E-01
  -2.2515297E-02  -4.6708775E-01   3.8992500E-01
   4.5728683E-04  -4.6645641E-01   3.9467144E-01
   2.0508289E-02  -4.5999146E-01   4.0289092E-01
   3.6504745E-02  -4.4922161E-01   4.1337156E-01
   4.8080444E-02  -4.3575478E-01   4.2493045E-01
   5.5467606E-02  -4.2103148E-01   4.3658367E-01
   5.9244633E-02  -4.0617037E-01   4.4761768E-01
  -9.4530048E+00  -1.1512721E+00   3.2507491E+00
  -9.7782965E+00  -1.1827011E+00   3.3345461E+00
  -1.0113180E+01  -1.2156589E+00   3.4188242E+00
  -1.0457963E+01  -1.2503259E+00   3.5033298E+00
  -1.0813000E+01  -1.2869090E+00   3.5877781E+00
  -1.1178694E+01  -1.3256446E+00   3.6718514E+00
  -1.1555511E+01  -1.3668016E+00   3.7551899E+00
  -1.1943980E+01  -1.4106864E+00   3.8373899E+00
  -1.2344710E+01  -1.4576457E+00   3.9179940E+00
  -1.2758388E+01  -1.5080721E+00   3.9964836E+00
  -1.3185792E+01  -1.5624099E+00   4.0722675E+00
  -1.3627796E+01  -1.6211593E+00   4.1446729E+00
  -1.4085376E+01  -1.6848838E+00   4.2129302E+00
  -1.4559610E+01  -1.7542175E+00   4.2761602E+00
  -1.5051682E+01  -1.8298725E+00   4.3333621E+00
  -1.5562875E+01  -1.9126480E+00   4.3833914E+00
  -1.6094570E+01  -2.0034406E+00   4.4249539E+00
  -1.6648235E+01  -2.1032567E+00   4.4565845E+00
  -1.7225410E+01  -2.2132249E+00   4.4766397E+00
  -1.7827696E+01  -2.3346136E+00   4.4832854E+00
  -1.8456724E+01  -2.4688506E+00   4.4744945E+00
  -1.9114145E+01  -2.6175461E+00   4.4480405E+00
  -1.9801603E+01  -2.7825227E+00   4.4014997E+00
  -2.0520708E+01  -2.9658511E+00   4.3322530E+00
  -2.1273003E+01  -3.1698928E+00   4.2374883E+00
  -2.2059940E+01  -3.3973572E+00   4.1141963E+00
  -2.2882826E+01  -3.6513567E+00   3.9591813E+00
  -2.3742767E+01  -3.9354930E+00   3.7690361E+00
  -2.4640570E+01  -4.2539411E+00   3.5401492E+00
  -2.5576618E+01  -4.6115508E+00   3.2687140E+00
  -2.6550697E+01  -5.0139685E+00   2.9507632E+00
  -2.7561773E+01  -5.4677682E+00   2.5822504E+00
  -2.8607737E+01  -5.9805937E+00   2.1591897E+00
  -2.9685114E+01  -6.5613194E+00   1.6778662E+00
  -3.0788757E+01  -7.2201810E+00   1.1350906E+00
  -3.1911518E+01  -7.9688778E+00   5.2849561E-01
  -3.3043854E+01  -8.8205490E+00  -1.4318365E-01
  -3.4173321E+01  -9.7895279E+00  -8.7987179E-01
  -3.5283844E+01  -1.0890695E+01  -1.6799005E+00
  -3.6354664E+01  -1.2138195E+01  -2.5396850E+00
  -3.7359035E+01  -1.3543243E+01  -3.4530201E+00
  -3.8262806E+01  -1.5110765E+01  -4.4096308E+00
  -3.9023697E+01  -1.6834770E+01  -5.3925548E+00
  -3.9592323E+01  -1.8692703E+01  -6.3741846E+00
  -3.9916542E+01  -2.0639671E+01  -7.3113947E+00
  -3.9950375E+01  -2.2604149E+01  -8.1411076E+00
  -3.9667645E+01  -2.4487411E+01  -8.7784834E+00
  -3.9078369E+01  -2.6169163E+01  -9.1203346E+00
  -3.8243385E+01  -2.7520660E+01  -9.0552616E+00
  -3.7281296E+01  -2.8424103E+01  -8.4799070E+00
  -3.6362339E+01  -2.8793934E+01  -7.3173032E+00
  -2.1682386E+00  -2.0642643E+00   1.9763947E-02
  -8.8371754E-02  -4.6396255E-01   3.4608603E-01
  -5.7801723E-02  -4.8156071E-01   3.3946753E-01
  -2.5494099E-02  -4.8959446E-01   3.4058952E-01
   4.8756599E-03  -4.8858643E-01   3.4855747E-01
   3.0638218E-02  -4.8018169E-01   3.6164117E-01
   5.0424099E-02  -4.6657181E-01   3.7781835E-01
   6.3986778E-02  -4.4992065E-01   3.9521658E-01
   7.1902275E-02  -4.3209362E-01   4.1236067E-01
   7.5169086E-02  -4.1447210E-01   4.2826143E-01
  -9.4921827E+00  -1.0633562E+00   3.2486076E+00
  -9.8193197E+00  -1.0918584E+00   3.3311810E+00
  -1.0156238E+01  -1.1217680E+00   3.4141226E+00
  -1.0503270E+01  -1.1532507E+00   3.4971752E+00
  -1.0860801E+01  -1.1864960E+00   3.5800507E+00
  -1.1229267E+01  -1.2217208E+00   3.6624274E+00
  -1.1609169E+01  -1.2591721E+00   3.7439432E+00
  -1.2001080E+01  -1.2991306E+00   3.8241887E+00
  -1.2405652E+01  -1.3419152E+00   3.9027019E+00
  -1.2823625E+01  -1.3878871E+00   3.9789572E+00
  -1.3255833E+01  -1.4374553E+00   4.0523548E+00
  -1.3703216E+01  -1.4910811E+00   4.1222115E+00
  -1.4166819E+01  -1.5492857E+00   4.1877437E+00
  -1.4647800E+01  -1.6126558E+00   4.2480540E+00
  -1.5147434E+01  -1.6818526E+00   4.3021178E+00
  -1.5667102E+01  -1.7576210E+00   4.3487635E+00
  -1.6208296E+01  -1.8407984E+00   4.3866577E+00
  -1.6772610E+01  -1.9323287E+00   4.4142914E+00
  -1.7361725E+01  -2.0332761E+00   4.4299636E+00
  -1.7977398E+01  -2.1448419E+00   4.4317718E+00
  -1.8621450E+01  -2.2683854E+00   4.4176006E+00
  -1.9295744E+01  -2.4054508E+00   4.3851190E+00
  -2.0002167E+01  -2.5577981E+00   4.3317709E+00
  -2.0742611E+01  -2.7274423E+00   4.2547765E+00
  -2.1518963E+01  -2.9167037E+00   4.1511159E+00
  -2.2333067E+01  -3.1282618E+00   4.0175362E+00
  -2.3186708E+01  -3.3652380E+00   3.8505125E+00
  -2.4081539E+01  -3.6312768E+00   3.6462362E+00
  -2.5019033E+01  -3.9306581E+00   3.4005859E+00
  -2.6000345E+01  -4.2684226E+00   3.1091089E+00
  -2.7026169E+01  -4.6505265E+00   2.7670212E+00
  -2.8096537E+01  -5.0840240E+00   2.3692422E+00
  -2.9210577E+01  -5.5772810E+00   1.9104755E+00
  -3.0366232E+01  -6.1402121E+00   1.3853304E+00
  -3.1559942E+01  -6.7845440E+00   7.8846753E-01
  -3.2786255E+01  -7.5240436E+00   1.1474276E-01
  -3.4037270E+01  -8.3746719E+00  -6.4070106E-01
  -3.5301857E+01  -9.3545046E+00  -1.4823841E+00
  -3.6564362E+01  -1.0483233E+01  -2.4144197E+00
  -3.7802776E+01  -1.1780935E+01  -3.4402061E+00
  -3.8986206E+01  -1.3265725E+01  -4.5614567E+00
  -4.0072029E+01  -1.4949877E+01  -5.7759485E+00
  -4.1003616E+01  -1.6834076E+01  -7.0733042E+00
  -4.1710320E+01  -1.8899979E+01  -8.4284821E+00
  -4.2112030E+01  -2.1101797E+01  -9.7934418E+00
  -4.2130669E+01  -2.3359070E+01  -1.1088928E+01
  -4.1709373E+01  -2.5553677E+01  -1.2199862E+01
  -4.0837418E+01  -2.7535126E+01  -1.2978710E+01
  -3.9574123E+01  -2.9136843E+01  -1.3260288E+01
  -3.8062107E+01  -3.0202831E+01  -1.2887631E+01
  -3.6520405E+01  -3.0618778E+01  -1.1743054E+01
  -3.5214653E+01  -3.0337437E+01  -9.7736511E+00
  -1.1377811E-01  -4.7366905E-01   2.8413010E-01
  -7.2529793E-02  -4.9666023E-01   2.7441120E-01
  -2.9351234E-02  -5.0727463E-01   2.7668190E-01
   1.0436058E-02  -5.0637150E-01   2.8925467E-01
   4.3222427E-02  -4.9629021E-01   3.0919981E-01
   6.7405701E-02  -4.7999573E-01   3.3326316E-01
   8.3027840E-02  -4.6035194E-01   3.5856128E-01
   9.1196060E-02  -4.3967962E-01   3.8296783E-01
   9.3503952E-02  -4.1961002E-01   4.0514994E-01
  -9.5266628E+00  -9.7197062E-01   3.2462187E+00
  -9.8554506E+00  -9.9732488E-01   3.3277037E+00
  -1.0194189E+01  -1.0239481E+00   3.4094577E+00
  -1.0543237E+01  -1.0519890E+00   3.4912210E+00
  -1.0903004E+01  -1.0816184E+00   3.5727029E+00
  -1.1273954E+01  -1.1130316E+00   3.6535788E+00
  -1.1656627E+01  -1.1464506E+00   3.7334826E+00
  -1.2051630E+01  -1.1821284E+00   3.8120019E+00
  -1.2459656E+01  -1.2203525E+00   3.8886693E+00
  -1.2881493E+01  -1.2614489E+00   3.9629533E+00
  -1.3318029E+01  -1.3057864E+00   4.0342469E+00
  -1.3770263E+01  -1.3537830E+00   4.1018558E+00
  -1.4239303E+01  -1.4059106E+00   4.1649837E+00
  -1.4726386E+01  -1.4627023E+00   4.2227173E+00
  -1.5232864E+01  -1.5247600E+00   4.2740102E+00
  -1.5760215E+01  -1.5927627E+00   4.3176622E+00
  -1.6310038E+01  -1.6674780E+00   4.3523078E+00
  -1.6884041E+01  -1.7497728E+00   4.3763938E+00
  -1.7484047E+01  -1.8406284E+00   4.3881664E+00
  -1.8111965E+01  -1.9411582E+00   4.3856559E+00
  -1.8769798E+01  -2.0526283E+00   4.3666654E+00
  -1.9459614E+01  -2.1764855E+00   4.3287621E+00
  -2.0183546E+01  -2.3143888E+00   4.2692637E+00
  -2.0943785E+01  -2.4682505E+00   4.1852322E+00
  -2.1742554E+01  -2.6402915E+00   4.0734491E+00
  -2.2582109E+01  -2.8330956E+00   3.9304118E+00
  -2.3464731E+01  -3.0497007E+00   3.7522752E+00
  -2.4392675E+01  -3.2936912E+00   3.5348253E+00
  -2.5368116E+01  -3.5693188E+00   3.2734213E+00
  -2.6393078E+01  -3.8816543E+00   2.9629419E+00
  -2.7469288E+01  -4.2367706E+00   2.5977488E+00
  -2.8598024E+01  -4.6419663E+00   2.1716585E+00
  -2.9779913E+01  -5.1060448E+00   1.6779401E+00
  -3.1014675E+01  -5.6396384E+00   1.1093328E+00
  -3.2300827E+01  -6.2555838E+00   4.5802423E-01
  -3.3635281E+01  -6.9693160E+00  -2.8440821E-01
  -3.5012642E+01  -7.7992048E+00  -1.1271830E+00
  -3.6424152E+01  -8.7667255E+00  -2.0805779E+00
  -3.7855850E+01  -9.8961964E+00  -3.1561699E+00
  -3.9285755E+01  -1.1213747E+01  -4.3667135E+00
  -4.0679962E+01  -1.2745037E+01  -5.7250304E+00
  -4.1987816E+01  -1.4511054E+01  -7.2409763E+00
  -4.3137383E+01  -1.6521461E+01  -8.9153805E+00
  -4.4033447E+01  -1.8765274E+01  -1.0730261E+01
  -4.4561440E+01  -2.1199484E+01  -1.2635578E+01
  -4.4601162E+01  -2.3737995E+01  -1.4535214E+01
  -4.4052773E+01  -2.6244881E+01  -1.6277020E+01
  -4.2873146E+01  -2.8538021E+01  -1.7654627E+01
  -4.1113903E+01  -3.0408220E+01  -1.8427765E+01
  -3.8945499E+01  -3.1654297E+01  -1.8362123E+01
  -3.6651134E+01  -3.2126598E+01  -1.7280195E+01
  -3.4583836E+01  -3.1764206E+01  -1.5104958E+01
  -3.3097145E+01  -3.0609680E+01  -1.1876863E+01
  -9.1982841E-02  -4.9999809E-01   1.9413376E-01
  -3.5019875E-02  -5.1460648E-01   1.9763374E-01
   1.6485214E-02  -5.1490688E-01   2.1631432E-01
   5.7736397E-02  -5.0407887E-01   2.4537754E-01
   8.6956024E-02  -4.8599148E-01   2.7975607E-01
   1.0467529E-01  -4.6422863E-01   3.1520104E-01
   1.1279011E-01  -4.4158220E-01   3.4874320E-01
   1.1367321E-01  -4.1990757E-01   3.7866139E-01
  -9.5564423E+00  -8.7765956E-01   3.2437544E+00
  -9.8866768E+00  -8.9967483E-01   3.3242884E+00
  -1.0227012E+01  -9.2280519E-01   3.4050069E+00
  -1.0577827E+01  -9.4718146E-01   3.4856477E+00
  -1.0939556E+01  -9.7295344E-01   3.5659182E+00
  -1.1312693E+01  -1.0002925E+00   3.6454899E+00
  -1.1697802E+01  -1.0293939E+00   3.7239954E+00
  -1.2095525E+01  -1.0604801E+00   3.8010180E+00
  -1.2506594E+01  -1.0938038E+00   3.8760862E+00
  -1.2931838E+01  -1.1296521E+00   3.9486632E+00
  -1.3372193E+01  -1.1683505E+00   4.0181351E+00
  -1.3828709E+01  -1.2102674E+00   4.0837984E+00
  -1.4302558E+01  -1.2558203E+00   4.1448455E+00
  -1.4795040E+01  -1.3054812E+00   4.2003474E+00
  -1.5307585E+01  -1.3597845E+00   4.2492380E+00
  -1.5841757E+01  -1.4193344E+00   4.2902937E+00
  -1.6399248E+01  -1.4848154E+00   4.3221159E+00
  -1.6981884E+01  -1.5570035E+00   4.3431139E+00
  -1.7591606E+01  -1.6367801E+00   4.3514829E+00
  -1.8230480E+01  -1.7251490E+00   4.3451934E+00
  -1.8900671E+01  -1.8232577E+00   4.3219724E+00
  -1.9604452E+01  -1.9324226E+00   4.2792921E+00
  -2.0344194E+01  -2.0541625E+00   4.2143521E+00
  -2.1122362E+01  -2.1902392E+00   4.1240640E+00
  -2.1941530E+01  -2.3427119E+00   4.0050235E+00
  -2.2804361E+01  -2.5139928E+00   3.8534861E+00
  -2.3713634E+01  -2.7069423E+00   3.6652999E+00
  -2.4672209E+01  -2.9249625E+00   3.4358554E+00
  -2.5683002E+01  -3.1721292E+00   3.1599982E+00
  -2.6748953E+01  -3.4533534E+00   2.8319468E+00
  -2.7872896E+01  -3.7745852E+00   2.4451962E+00
  -2.9057489E+01  -4.1430707E+00   1.9924270E+00
  -3.0305040E+01  -4.5676770E+00   1.4654124E+00
  -3.1617344E+01  -5.0592880E+00   8.5488153E-01
  -3.2995422E+01  -5.6312838E+00   1.5032285E-01
  -3.4439137E+01  -6.3000808E+00  -6.6037315E-01
  -3.5946434E+01  -7.0856676E+00  -1.5914385E+00
  -3.7512028E+01  -8.0120335E+00  -2.6599505E+00
  -3.9125034E+01  -9.1072369E+00  -3.8865495E+00
  -4.0765190E+01  -1.0402725E+01  -5.2957382E+00
  -4.2397240E+01  -1.1931295E+01  -6.9148560E+00
  -4.3963821E+01  -1.3722958E+01  -8.7704411E+00
  -4.5377861E+01  -1.5797719E+01  -1.0880255E+01
  -4.6517414E+01  -1.8154705E+01  -1.3239531E+01
  -4.7227623E+01  -2.0757940E+01  -1.5801435E+01
  -4.7335838E+01  -2.3520756E+01  -1.8454212E+01
  -4.6684994E+01  -2.6294279E+01  -2.1002737E+01
  -4.5184845E+01  -2.8867878E+01  -2.3165821E+01
  -4.2869846E+01  -3.0989752E+01  -2.4602058E+01
  -3.9940475E+01  -3.2410660E+01  -2.4968943E+01
  -3.6760818E+01  -3.2941902E+01  -2.4003326E+01
  -3.3798618E+01  -3.2506744E+01  -2.1593466E+01
  -3.1522873E+01  -3.1161982E+01  -1.7808777E+01
  -2.9932308E+01  -2.8731016E+01  -1.2713369E+01
  -4.4124603E-02  -5.0448990E-01   1.0583687E-01
   2.1556854E-02  -5.0801468E-01   1.3172913E-01
   7.2793961E-02  -4.9839687E-01   1.7194080E-01
   1.0771656E-01  -4.8041534E-01   2.1890831E-01
   1.2762547E-01  -4.5835400E-01   2.6656628E-01
   1.3545704E-01  -4.3541145E-01   3.1089735E-01
   1.3458443E-01  -4.1364145E-01   3.4978151E-01
  -9.5815382E+00  -7.8092384E-01   3.2413983E+00
  -9.9130077E+00  -7.9943830E-01   3.3211234E+00
  -1.0254706E+01  -8.1890059E-01   3.4009616E+00
  -1.0607033E+01  -8.3942199E-01   3.4806492E+00
  -1.0970442E+01  -8.6112988E-01   3.5598919E+00
  -1.1345448E+01  -8.8417011E-01   3.6383593E+00
  -1.1732642E+01  -9.0870875E-01   3.7156806E+00
  -1.2132697E+01  -9.3493515E-01   3.7914371E+00
  -1.2546376E+01  -9.6306479E-01   3.8651533E+00
  -1.2974545E+01  -9.9334234E-01   3.9362876E+00
  -1.3418180E+01  -1.0260457E+00   4.0042210E+00
  -1.3878378E+01  -1.0614897E+00   4.0682406E+00
  -1.4356365E+01  -1.1000316E+00   4.1275296E+00
  -1.4853498E+01  -1.1420761E+00   4.1811457E+00
  -1.5371276E+01  -1.1880819E+00   4.2280049E+00
  -1.5911336E+01  -1.2385689E+00   4.2668624E+00
  -1.6475460E+01  -1.2941277E+00   4.2962923E+00
  -1.7065573E+01  -1.3554296E+00   4.3146677E+00
  -1.7683729E+01  -1.4232391E+00   4.3201408E+00
  -1.8332127E+01  -1.4984303E+00   4.3106284E+00
  -1.9013090E+01  -1.5820059E+00   4.2837882E+00
  -1.9729074E+01  -1.6751213E+00   4.2370076E+00
  -2.0482670E+01  -1.7791163E+00   4.1673794E+00
  -2.1276611E+01  -1.8955523E+00   4.0716796E+00
  -2.2113791E+01  -2.0262656E+00   3.9463308E+00
  -2.2997259E+01  -2.1734190E+00   3.7873673E+00
  -2.3930275E+01  -2.3395953E+00   3.5903525E+00
  -2.4916292E+01  -2.5278900E+00   3.3503060E+00
  -2.5958961E+01  -2.7420397E+00   3.0615902E+00
  -2.7062119E+01  -2.9865878E+00   2.7177892E+00
  -2.8229740E+01  -3.2670929E+00   2.3115606E+00
  -2.9465904E+01  -3.5904026E+00   1.8344762E+00
  -3.0774704E+01  -3.9649959E+00   1.2768049E+00
  -3.2160168E+01  -4.4014292E+00   6.2724316E-01
  -3.3626099E+01  -4.9128742E+00  -1.2753302E-01
  -3.5175739E+01  -5.5157738E+00  -1.0035279E+00
  -3.6811031E+01  -6.2305374E+00  -2.0204031E+00
  -3.8531109E+01  -7.0822086E+00  -3.2027633E+00
  -4.0329498E+01  -8.1008739E+00  -4.5815454E+00
  -4.2189346E+01  -9.3213911E+00  -6.1949806E+00
  -4.4076180E+01  -1.0781874E+01  -8.0880108E+00
  -4.5928009E+01  -1.2519879E+01  -1.0308331E+01
  -4.7644089E+01  -1.4565264E+01  -1.2896658E+01
  -4.9075371E+01  -1.6928505E+01  -1.5868759E+01
  -5.0022835E+01  -1.9584167E+01  -1.9187956E+01
  -5.0252525E+01  -2.2451435E+01  -2.2730934E+01
  -4.9536232E+01  -2.5377254E+01  -2.6256207E+01
  -4.7720280E+01  -2.8132133E+01  -2.9392820E+01
  -4.4809738E+01  -3.0430376E+01  -3.1670641E+01
  -4.1034710E+01  -3.1980745E+01  -3.2603886E+01
  -3.6855789E+01  -3.2558514E+01  -3.1813065E+01
  -3.2883408E+01  -3.2071781E+01  -2.9138538E+01
  -2.9731121E+01  -3.0590313E+01  -2.4689363E+01
  -2.7864819E+01  -2.8320747E+01  -1.8799236E+01
  -5.9068680E-02  -4.6959877E-01   8.1672668E-03
   2.3111343E-02  -4.7928619E-01   4.1215897E-02
   8.5857391E-02  -4.7402287E-01   9.3582153E-02
   1.2726116E-01  -4.5923996E-01   1.5449715E-01
   1.4962482E-01  -4.3974686E-01   2.1562004E-01
   1.5721416E-01  -4.1906214E-01   2.7171326E-01
   1.5453625E-01  -3.9935970E-01   3.2022595E-01
  -9.6019783E+00  -6.8222880E-01   3.2393324E+00
  -9.9344635E+00  -6.9710857E-01   3.3183925E+00
  -1.0277287E+01  -7.1275759E-01   3.3975084E+00
  -1.0630859E+01  -7.2926623E-01   3.4764152E+00
  -1.0995653E+01  -7.4673814E-01   3.5548158E+00
  -1.1372203E+01  -7.6529187E-01   3.6323791E+00
  -1.1761120E+01  -7.8506261E-01   3.7087321E+00
  -1.2163101E+01  -8.0620450E-01   3.7834537E+00
  -1.2578938E+01  -8.2889307E-01   3.8560653E+00
  -1.3009526E+01  -8.5332775E-01   3.9260221E+00
  -1.3455878E+01  -8.7973529E-01   3.9926982E+00
  -1.3919128E+01  -9.0837282E-01   4.0553765E+00
  -1.4400546E+01  -9.3953258E-01   4.1132302E+00
  -1.4901540E+01  -9.7354591E-01   4.1653056E+00
  -1.5423664E+01  -1.0107890E+00   4.2105045E+00
  -1.5968623E+01  -1.0516891E+00   4.2475638E+00
  -1.6538273E+01  -1.0967327E+00   4.2750340E+00
  -1.7134619E+01  -1.1464731E+00   4.2912574E+00
  -1.7759821E+01  -1.2015435E+00   4.2943516E+00
  -1.8416189E+01  -1.2626686E+00   4.2821836E+00
  -1.9106184E+01  -1.3306835E+00   4.2523556E+00
  -1.9832426E+01  -1.4065533E+00   4.2021790E+00
  -2.0597694E+01  -1.4914011E+00   4.1286550E+00
  -2.1404963E+01  -1.5865426E+00   4.0284419E+00
  -2.2257408E+01  -1.6935316E+00   3.8978109E+00
  -2.3158436E+01  -1.8142066E+00   3.7326028E+00
  -2.4111742E+01  -1.9507763E+00   3.5281272E+00
  -2.5121319E+01  -2.1059036E+00   3.2790747E+00
  -2.6191496E+01  -2.2828233E+00   2.9793730E+00
  -2.7326962E+01  -2.4854987E+00   2.6220324E+00
  -2.8532776E+01  -2.7188177E+00   2.1989450E+00
  -2.9814381E+01  -2.9888546E+00   1.7006474E+00
  -3.1177624E+01  -3.3032107E+00   1.1160015E+00