<?xml version="1.0"?>
<VTKFile type="StructuredGrid" version="0.1" byte_order="LittleEndian" header_type="UInt32" compressor="vtkZLibDataCompressor">
  <StructuredGrid WholeExtent="0 60 0 20 0 20">
  <Piece Extent="0 60 0 20 0 20">
    <PointData Vectors="B_total">
      <DataArray type="Float32" Name="B_total" NumberOfComponents="3" format="ascii" RangeMin="0" RangeMax="56916.01733061178">
        -9.638997 -1.3198513 3.2347453 -9.967555 -1.3561805 3.3206778
        -10.305395 -1.3941061 3.4072437 -10.65278 -1.4338145 3.4941757
        -11.010006 -1.4755201 3.5811715 -11.377423 -1.5194682 3.6678915
        -11.755432 -1.5659395 3.7539527 -12.144493 -1.6152529 3.838923
        -12.545137 -1.6677709 3.922313 -12.957973 -1.7239033 4.003569
        -13.383685 -1.7841132 4.082064 -13.823051 -1.8489221 4.1570845
        -14.276938 -1.9189162 4.22782 -14.746305 -1.9947534 4.293351
        -15.2322 -2.0771704 4.3526373 -15.735765 -2.1669927 4.4044995
        -16.258217 -2.265141 4.447612 -16.80085 -2.3726463 4.4804883
        -17.365 -2.490661 4.501476 -17.952047 -2.6204724 4.508745
        -18.563375 -2.7635245 4.500295 -19.200356 -2.9214377 4.4739494
        -19.864305 -3.0960362 4.427367 -20.556469 -3.289381 4.358053
        -21.27796 -3.5038075 4.263367 -22.029722 -3.7419693 4.1405425
        -22.812489 -4.0069046 3.9866924 -23.626656 -4.3020797 3.798835
        -24.472214 -4.631469 3.5739129 -25.348572 -4.999627 3.3088377
        -26.25438 -5.411771 3.00057 -27.187275 -5.8738556 2.6462555
        -28.143627 -6.392654 2.2434285 -29.118221 -6.9758058 1.7903017
        -30.103992 -7.6318407 1.286134 -31.091736 -8.37011 0.731659
        -32.06988 -9.200574 0.12952948 -33.024284 -10.133357 -0.51526046
        -33.937984 -11.177904 -1.1949863 -34.790997 -12.341616 -1.8988203
        -35.560097 -13.627766 -2.6123495 -36.218872 -15.032654 -3.3167818
        -36.738396 -16.542034 -3.9876435 -37.08929 -18.127293 -4.5928636
        -37.24597 -19.742167 -5.0906744 -37.19343 -21.321257 -5.428045
        -36.936333 -22.781776 -5.541077 -36.508526 -24.029705 -5.3584523
        -35.98018 -24.970257 -4.808409 -35.45921 -25.521103 -3.828065
        0.039215267 -0.09462166 0.69803905 -0.004535675 -0.0868206 0.6953268
        -0.046370745 -0.09051418 0.6823349 -0.08182192 -0.10438919 0.6609521
        -0.1079073 -0.12584019 0.6341243 -0.12352085 -0.15164757 0.60510874
        -0.12925148 -0.17872715 0.576807 -0.1268425 -0.20464039 0.5513325
        -0.11856127 -0.22777319 0.5299021 -0.10667324 -0.24731636 0.5129224
        -0.09309101 -0.26310635 0.5002141 -9.680683 -1.2295772 3.2294927
        -10.011048 -1.2629964 3.3138936 -10.35089 -1.2979039 3.3987916
        -10.700494 -1.3344731 3.4839149 -11.060193 -1.3729036 3.5689583
        -11.430369 -1.4134237 3.6535788 -11.811463 -1.4562943 3.7373886
        -12.203978 -1.501813 3.819951 -12.608493 -1.5503173 3.9007723
        -13.025669 -1.6021901 3.979292 -13.456252 -1.657864 4.0548744
        -13.901081 -1.7178272 4.1267953 -14.361096 -1.7826303 4.1942325
        -14.837336 -1.8528918 4.2562494 -15.330937 -1.9293073 4.3117824
        -15.843139 -2.0126574 4.359627 -16.375267 -2.1038184 4.398422
        -16.92873 -2.2037745 4.42664 -17.505005 -2.3136318 4.4425735
        -18.105625 -2.4346344 4.4443307 -18.732145 -2.5681865 4.429827
        -19.386135 -2.7158766 4.396788 -20.069147 -2.879508 4.342746
        -20.782686 -3.0611382 4.265051 -21.52818 -3.2631216 4.160866
        -22.306936 -3.4881644 4.0271773 -23.120106 -3.7394042 3.8607888
        -23.968586 -4.020467 3.6583252 -24.85293 -4.3355722 3.4162364
        -25.773207 -4.689636 3.1308177 -26.72881 -5.0883904 2.7982626
        -27.718224 -5.538516 2.4147565 -28.73875 -6.0477834 1.9766412
        -29.786192 -6.6251984 1.4806397 -30.85452 -7.2811117 0.92414224
        -31.935505 -8.027272 0.3055356 -33.018276 -8.876716 -0.37546623
        -34.088802 -9.843406 -1.1174937 -35.129173 -10.941393 -1.9171612
        -36.11664 -12.18332 -2.7685676 -37.02251 -13.577956 -3.662405
        -37.811237 -15.126621 -4.584316 -38.44034 -16.81847 -5.512205
        -38.862297 -18.624973 -6.412387 -39.02988 -20.49472 -7.235196
        -38.90574 -22.350128 -7.9114723 -38.476013 -24.088379 -8.352048
        -37.765587 -25.588589 -8.45257 -36.85023 -26.725988 -8.104639
        -35.86017 -27.391172 -7.2118387 -34.970837 -27.509666 -5.7064214
        -0.0016767979 -0.061584473 0.7662668 -0.05610943 -0.06491852 0.7492962
        -0.10174847 -0.08120632 0.71996975 -0.13448524 -0.10689545 0.6828022
        -0.15297985 -0.13771152 0.6427324 -0.15838242 -0.16965199 0.6040368
        -0.15339613 -0.19966316 0.5697042 -0.14130163 -0.22587919 0.5413021
        -0.1251874 -0.24751091 0.519207 -0.10754824 -0.2645402 0.5029875
        -9.715686 -1.1345389 3.2230785 -10.047625 -1.1648047 3.3060822
        -10.389215 -1.1964355 3.3894646 -10.740768 -1.2295898 3.4729505
        -11.102649 -1.2644508 3.5562322 -11.475266 -1.3012277 3.6389635
        -11.8591 -1.3401599 3.7207541 -12.254694 -1.3815204 3.8011637
        -12.662673 -1.4256192 3.8796937 -13.083744 -1.4728084 3.955779
        -13.51871 -1.5234864 4.028776 -13.968472 -1.578104 4.097953
        -14.434035 -1.6371691 4.162475 -14.916515 -1.7012557 4.2213907
        -15.417134 -1.7710093 4.273617 -15.937222 -1.847158 4.3179245
        -16.47821 -1.9305214 4.352921 -17.041628 -2.0220242 4.377039
        -17.629087 -2.1227105 4.3885226 -18.242271 -2.2337618 4.385417
        -18.882912 -2.356519 4.3655596 -19.552786 -2.4925113 4.3265786
        -20.253683 -2.6434865 4.2658854 -20.987389 -2.811456 4.180672
        -21.755663 -2.9987411 4.0679097 -22.560223 -3.2080483 3.9243314
        -23.402666 -3.4425297 3.7464225 -24.284458 -3.7058866 3.5304017
        -25.20681 -4.002477 3.272202 -26.170567 -4.3374543 2.9674587
        -27.176039 -4.716922 2.611527 -28.222782 -5.1481214 2.1995263
        -29.309347 -5.6396494 1.7264326 -30.432957 -6.201689 1.1872152
        -31.589146 -6.846244 0.5770007 -32.771305 -7.587334 -0.1087631
        -33.970078 -8.441048 -0.8741536 -35.172432 -9.4253235 -1.7226205
        -36.360382 -10.559233 -2.6567676 -37.509148 -11.861472 -3.6777682
        -38.584858 -13.347661 -4.7840967 -39.542187 -15.026105 -5.9688983
        -40.32293 -16.891823 -7.2155256 -40.85725 -18.919119 -8.491027
        -41.069702 -21.053734 -9.738345 -40.892 -23.206825 -10.869338
        -40.282684 -25.254002 -11.762218 -39.25075 -27.04298 -12.267334
        -37.87621 -28.411793 -12.223923 -36.318184 -29.215904 -11.486404
        -34.802803 -29.357197 -9.953201 -33.590317 -28.805151 -7.5876274
        -0.066678524 -0.046943665 0.834918 -0.12500715 -0.06502533 0.7951298
        -0.16571045 -0.094511986 0.74421644 -0.18729973 -0.12985897 0.68955326
        -0.1917944 -0.16604805 0.6373534 -0.1832323 -0.19940853 0.59176517
        -0.16624641 -0.22789288 0.55472183 -0.14497566 -0.2507882 0.52646315
        -0.12257004 -0.26830864 0.50613207 -9.744573 -1.0353287 3.2156568
        -10.077862 -1.0622289 3.2973986 -10.420959 -1.0903565 3.379417
        -10.774202 -1.1198542 3.461435 -11.137978 -1.1508868 3.5431433
        -11.512729 -1.1836426 3.6241932 -11.898965 -1.2183373 3.704192
        -12.297266 -1.2552166 3.7826967 -12.708299 -1.2945604 3.8592062
        -13.132815 -1.3366865 3.9331496 -13.571671 -1.381955 4.003879
        -14.025821 -1.4307739 4.0706544 -14.496334 -1.4836044 4.13263
        -14.984396 -1.5409678 4.188843 -15.491309 -1.6034529 4.2381916
        -16.01849 -1.6717248 4.2794247 -16.567472 -1.7465354 4.3111215
        -17.139898 -1.8287365 4.331679 -17.73751 -1.9192932 4.339294
        -18.362139 -2.0193043 4.331955 -19.015696 -2.130023 4.307426
        -19.70016 -2.2528875 4.2632427 -20.417557 -2.389553 4.196699
        -21.169971 -2.5419397 4.1048374 -21.959496 -2.7122803 3.9844365
        -22.788267 -2.903201 3.8319812 -23.658382 -3.117792 3.6436412
        -24.571907 -3.359717 3.415224 -25.530771 -3.6333427 3.1421316
        -26.536701 -3.9438958 2.8193176 -27.591066 -4.297656 2.4412508
        -28.694698 -4.702191 2.0019004 -29.847672 -5.166639 1.4947376
        -31.049019 -5.70204 0.91274995 -32.296375 -6.321695 0.2484335
        -33.58545 -7.0415106 -0.5062611 -34.909256 -7.880266 -1.3600478
        -36.25686 -8.8596115 -2.3224592 -37.61142 -10.00359 -3.4038668
        -38.947334 -11.337255 -4.6150084 -40.226456 -12.883957 -5.965407
        -41.393784 -14.660639 -7.459737 -42.373936 -16.67073 -9.091248
        -43.0708 -18.894669 -10.831762 -43.373566 -21.278875 -12.618911
        -43.172703 -23.726065 -14.343678 -42.38714 -26.090923 -15.843364
        -40.999702 -28.187193 -16.907415 -39.090775 -29.809973 -17.301271
        -36.854828 -30.77203 -16.807608 -34.58611 -30.945332 -15.274498
        -32.630394 -30.292536 -12.652108 -31.316488 -28.874733 -9.001059
        -0.1505804 -0.06292343 0.88656616 -0.20059967 -0.094558716 0.8181505
        -0.22540283 -0.13270473 0.74505615 -0.22827244 -0.17133999 0.67610645
        -0.2151041 -0.20629025 0.61684656 -0.19221783 -0.23538971 0.5696032
        -0.16498852 -0.25812054 0.53427505 -0.13729191 -0.27495575 0.5093805
        -9.767971 -0.93251663 3.2076225 -10.102401 -0.95586675 3.288242
        -10.446777 -0.9802939 3.369053 -10.80146 -1.0059239 3.4497766
        -11.166858 -1.0329013 3.5301015 -11.543439 -1.0613916 3.6096778
        -11.931744 -1.0915849 3.6881115 -12.332385 -1.1236972 3.764958
        -12.746064 -1.1579753 3.839712 -13.173575 -1.1946993 3.9118009
        -13.615819 -1.2341872 3.9805713 -14.073801 -1.2767999 4.0452766
        -14.548651 -1.3229457 4.1050634 -15.041614 -1.3730872 4.158956
        -15.554066 -1.4277483 4.205839 -16.087507 -1.4875221 4.244441
        -16.643562 -1.5530816 4.273316 -17.22398 -1.6251907 4.2908278
        -17.830627 -1.70472 4.2951326 -18.465475 -1.7926636 4.284166
        -19.130602 -1.8901622 4.255624 -19.828186 -1.9985307 4.2069573
        -20.560492 -2.1192935 4.1353493 -21.32988 -2.2542276 4.0377016
        -22.13879 -2.4054172 3.9106097 -22.989773 -2.5753317 3.7503223
        -23.88544 -2.766899 3.5527003 -24.828465 -2.9836254 3.3131495
        -25.821552 -3.229731 3.0265493 -26.867355 -3.5103211 2.6871657
        -27.968403 -3.8316066 2.2885656 -29.126945 -4.2011743 1.8235232
        -30.344812 -4.6283255 1.2839179 -31.62317 -5.1244826 0.6605925
        -32.962208 -5.7036686 -0.056866825 -34.36061 -6.383006 -0.8804699
        -35.814644 -7.1831956 -1.824309 -37.316612 -8.128792 -2.9051495
        -38.852257 -9.24803 -4.14289 -40.396793 -10.571785 -5.5603976
        -41.909355 -12.131033 -7.181837 -43.326317 -13.952054 -9.028162
        -44.55475 -16.048546 -11.108252 -45.46928 -18.41024 -13.404539
        -45.916996 -20.988758 -15.853699 -45.735874 -23.683199 -18.325592
        -44.790867 -26.33147 -20.60876 -43.02495 -28.715122 -22.413744
        -40.51183 -30.584724 -23.405163 -37.486813 -31.706442 -23.264193
        -34.331627 -31.918064 -21.765738 -31.505812 -31.173532 -18.840265
        -29.444767 -29.555004 -14.589967 -14.23605 -13.583801 -4.0988655
        -0.23657036 -0.11433029 0.90142727 -0.2646408 -0.15171814 0.80651855
        -0.26529503 -0.18933964 0.71808624 -0.24671555 -0.22274113 0.64331484
        -0.21725082 -0.24983501 0.5847926 -0.1836605 -0.27028704 0.5419135
        -0.15050125 -0.28484344 0.51231503 -9.786513 -0.82666326 3.1995265
        -10.121886 -0.8463052 3.2791731 -10.467326 -0.8668626 3.3589404
        -10.823208 -0.8884427 3.4385488 -11.189961 -0.9111686 3.517686
        -11.56808 -0.9351817 3.5960011 -11.958125 -0.96064365 3.673099
        -12.360742 -0.9877393 3.7485332 -12.776662 -1.016679 3.8217974
        -13.206715 -1.0477024 3.8923154 -13.65184 -1.0810817 3.9594305
        -14.113091 -1.1171257 4.0223904 -14.591645 -1.1561853 4.080335
        -15.088805 -1.198658 4.132279 -15.60601 -1.2449951 4.177093
        -16.144836 -1.2957085 4.2134895 -16.706991 -1.3513813 4.2400007
        -17.29432 -1.4126768 4.254961 -17.908794 -1.4803534 4.256491
        -18.552526 -1.5552809 4.2424784 -19.227743 -1.6384617 4.210561
        -19.936808 -1.7310562 4.15811 -20.682209 -1.834417 4.08221
        -21.466568 -1.9501301 3.9796345 -22.292658 -2.0800662 3.8468096
        -23.163427 -2.2264566 3.6797652 -24.081978 -2.391967 3.4740744
        -25.051598 -2.579813 3.2247658 -26.075748 -2.7938983 2.9262176
        -27.158033 -3.0389903 2.5720363 -28.302168 -3.3209503 2.1549065
        -29.511898 -3.6470199 1.6664176 -30.79092 -4.0261927 1.0968404
        -32.142746 -4.4696712 0.43480992 -33.57044 -4.991421 -0.3331338
        -35.076157 -5.6088095 -1.2232381 -36.660152 -6.3432493 -2.255474
        -38.319016 -7.220757 -3.4546955 -40.04249 -8.272127 -4.851733
        -41.80842 -9.53233 -6.483813 -43.57532 -11.038412 -8.39313
        -45.272865 -12.824988 -10.621723 -46.791634 -14.91617 -13.200388
        -47.97584 -17.31301 -16.129463 -48.625298 -19.976564 -19.351042
        -48.515343 -22.809208 -22.716461 -47.442062 -25.640558 -25.959667
        -45.292618 -28.22851 -28.694496 -42.123997 -30.28597 -30.455082
        -38.215435 -31.536327 -30.78607 -34.05524 -31.784584 -29.361532
        -30.246187 -30.97573 -26.083754 -27.358522 -29.211536 -21.111406
        -25.793419 -26.71596 -14.799507 -0.26895905 -0.16109657 0.98633385
        -0.3004589 -0.19195652 0.8680849 -0.29871178 -0.22327328 0.75905895
        -0.2745762 -0.25061226 0.668293 -0.23859596 -0.2720909 0.59851074
        -0.19890022 -0.2875986 0.54832935 -0.16071129 -0.29796648 0.5143887
        -9.800783 -0.71832186 3.1919827 -10.136912 -0.7341234 3.2708158
        -10.483208 -0.75066906 3.3497128 -10.840058 -0.7680462 3.4283946
        -11.207911 -0.78635526 3.5065472 -11.587278 -0.80571157 3.5838192
        -11.978745 -0.8262473 3.6598148 -12.382975 -0.8481132 3.7340868
        -12.800728 -0.87148136 3.8061266 -13.232867 -0.89654773 3.8753574
        -13.680363 -0.9235354 3.9411178 -14.144305 -0.9526977 4.0026526
        -14.625916 -0.9843224 4.0590954 -15.126548 -1.0187366 4.109452
        -15.647694 -1.0563118 4.1525836 -16.19099 -1.0974714 4.1871877
        -16.758219 -1.1426967 4.211777 -17.351307 -1.192539 4.224665
        -17.97233 -1.2476289 4.2239385 -18.623503 -1.3086929 4.207445
        -19.307201 -1.3765709 4.1727715 -20.02594 -1.4522389 4.117223
        -20.78241 -1.5368397 4.0377955 -21.579477 -1.6317203 3.9311512
        -22.420204 -1.7384766 3.7935688 -23.307903 -1.8590229 3.6208825
        -24.246138 -1.9956594 3.40841 -25.238758 -2.1511798 3.1508396
        -26.289938 -2.3289986 2.8420978 -27.404186 -2.5333204 2.4751852
        -28.58636 -2.7693558 2.0419688 -29.84167 -3.0436063 1.5329254
        -31.175673 -3.3642306 0.936794 -32.594246 -3.7415118 0.24007574
        -34.10346 -4.1884375 -0.5736909 -35.70913 -4.721388 -1.524988
        -37.41596 -5.3609085 -2.639775 -39.225494 -6.1324406 -3.9513113
        -41.1326 -7.0668173 -5.502057 -43.11935 -8.200106 -7.344925
        -45.145844 -9.572118 -9.542456 -47.13764 -11.222578 -12.161531
        -48.971222 -13.18354 -15.260362 -50.46157 -15.466829 -18.864317
        -51.35948 -18.045797 -22.928604 -51.371056 -20.833603 -27.29132
        -50.2116 -23.664436 -31.630285 -47.69756 -26.289833 -35.44945
        -43.857574 -28.404072 -38.126312 -39.01432 -29.704762 -39.035614
        -33.777107 -29.975088 -37.72268 -28.916721 -29.153717 -34.05277
        -25.16182 -27.355625 -28.255716 -23.01024 -24.831385 -20.837708
        -14.09164 -13.607405 -7.2570314 -0.32632637 -0.2560444 0.9203892
        -0.3229046 -0.27431107 0.7927494 -0.294199 -0.29013443 0.6878252
        -0.25289726 -0.30189228 0.60841846 -0.208354 -0.30954266 0.5522785
        -0.16633797 -0.31377268 0.5150025 -9.811285 -0.6080324 3.1855845
        -10.147992 -0.6198876 3.2637744 -10.494943 -0.6323071 3.341985
        -10.852538 -0.64535755 3.4199367 -11.22124 -0.65911573 3.4973154
        -11.601574 -0.6736695 3.5737693 -11.99414 -0.6891198 3.6489022
        -12.399622 -0.70558184 3.7222657 -12.818805 -0.72318715 3.7933512
        -13.25257 -0.7420858 3.8615787 -13.701916 -0.76244843 3.9262855
        -14.167966 -0.78446925 3.986713 -14.651974 -0.8083694 4.04199
        -15.155329 -0.8344002 4.091116 -15.679573 -0.8628479 4.132944
        -16.22639 -0.8940388 4.1661596 -16.797623 -0.92834526 4.1892624
        -17.395266 -0.96619415 4.200544 -18.021471 -1.0080757 4.198067
        -18.678555 -1.0545555 4.1796474 -19.368996 -1.1062899 4.142829
        -20.095455 -1.164044 4.084862 -20.860783 -1.2287173 4.0026736
        -21.668037 -1.3013723 3.8928318 -22.520554 -1.383278 3.75149
        -23.421942 -1.475956 3.574325 -24.376148 -1.5812489 3.3564386
        -25.387522 -1.7014041 3.092233 -26.460857 -1.8391837 2.775251
        -27.601458 -1.9980104 2.3979745 -28.815195 -2.1821542 1.9515659
        -30.108597 -2.396983 1.4255311 -31.488918 -2.6492877 0.8072514
        -32.96424 -2.9477046 0.081323296 -34.54343 -3.303252 -0.771435
        -36.235878 -3.7299852 -1.7753975 -38.050617 -4.2457614 -2.962115
        -39.994324 -4.873024 -4.372819 -42.06741 -5.639472 -6.0612125
        -44.257175 -6.5782475 -8.095724 -46.526955 -7.7270513 -10.559555
        -48.80076 -9.125237 -13.545687 -50.94445 -10.807486 -17.142496
        -52.747437 -12.792554 -21.40506 -53.914318 -15.066036 -26.308199
        -54.082043 -17.558395 -31.68372 -52.88083 -20.12413 -37.157536
        -50.047813 -22.534086 -42.120884 -45.57374 -24.496706 -45.781895
        -39.819885 -25.71677 -47.325333 -33.520462 -25.979439 -46.149418
        -27.624815 -25.223433 -42.07593 -23.030117 -23.563803 -35.415596
        -20.333923 -21.249464 -26.845097 -19.722866 -18.5798 -17.167854
        -0.33479118 -0.3414049 0.95176697 -0.33164406 -0.33991337 0.8116741
        -0.30086327 -0.3389635 0.6975002 -0.25681305 -0.33725405 0.6121006
        -0.20981407 -0.33453894 0.5525718 -0.16597939 -0.33107758 0.5136485
        -9.8184185 -0.49631557 3.1808426 -10.155533 -0.5041445 3.2585685
        -10.502946 -0.5123516 3.3362849 -10.861069 -0.520982 3.4137118
        -11.230372 -0.53008765 3.4905348 -11.611391 -0.5397281 3.5664024
        -12.004741 -0.5499718 3.640917 -12.411118 -0.56089693 3.7136307
        -12.83132 -0.572593 3.784033 -13.266249 -0.5851618 3.8515444
        -13.716921 -0.59871954 3.9154997 -14.184482 -0.6133987 3.975138
        -14.670211 -0.62935007 4.029584 -15.175528 -0.6467454 4.077834
        -15.702003 -0.66578066 4.118734 -16.251362 -0.6866796 4.150961
        -16.825487 -0.7096981 4.173004 -17.426426 -0.73513013 4.1831403
        -18.05639 -0.763314 4.1794143 -18.717768 -0.79464114 4.1596174
        -19.41312 -0.82956684 4.121262 -20.14521 -0.86862385 4.0615587
        -20.917013 -0.9124398 3.9773805 -21.731743 -0.96175873 3.8652256
        -22.592928 -1.0174721 3.721156 -23.504408 -1.0806526 3.5407262
        -24.470444 -1.1526041 3.3188746 -25.495758 -1.2349228 3.0497851
        -26.58563 -1.3295788 2.7267063 -27.745993 -1.4390233 2.34172
        -28.98353 -1.5663304 1.8854377 -30.305819 -1.7153829 1.3466014
        -31.721502 -1.8911216 0.71152467 -33.24045 -2.0998688 -0.03672746
        -34.873875 -2.3497448 -0.91952974 -36.63415 -2.6511905 -1.9644399
        -38.53405 -3.0175824 -3.2076209 -40.584774 -3.4659133 -4.696978
        -42.79183 -4.017412 -6.4957685 -45.147614 -4.697872 -8.685818
        -47.61935 -5.5372367 -11.368549 -50.1314 -6.5677047 -14.660553
        -52.542618 -7.8191767 -18.678436 -54.622635 -9.310735 -23.506523
        -56.03785 -11.03701 -29.141596 -56.36503 -12.949872 -35.415314
        -55.156986 -14.93989 -41.911728 -52.075172 -16.827448 -47.92172
        -47.069855 -18.377705 -52.4955 -40.532413 -19.348661 -54.63586
        -33.309315 -19.562271 -53.59726 -26.51448 -18.96719 -49.15855
        -21.200554 -17.65929 -41.70892 -18.054447 -15.845572 -32.090187
        -17.267294 -13.772003 -21.290192 -0.31950188 -0.43842316 0.9512558
        -0.31982422 -0.41276598 0.80921364 -0.2908516 -0.39175463 0.6936369
        -0.24785995 -0.37438345 0.60772896 -0.20172882 -0.35998988 0.5484028
        -0.15876198 -0.34812403 0.51007915 -9.822476 -0.38366944 3.1781435
        -10.15983 -0.38741904 3.2555916 -10.507517 -0.39135623 3.3330126
        -10.865952 -0.39550406 3.410126 -11.235612 -0.39988908 3.4866173
        -11.61704 -0.4045418 3.5621345 -12.010856 -0.4094973 3.6362805
        -12.417767 -0.41479585 3.7086065 -12.838579 -0.42048338 3.7786021
        -13.274204 -0.42661253 3.8456862 -13.725673 -0.43324327 3.9091933
        -14.194142 -0.4404443 3.9683607 -14.680908 -0.44829383 4.022311
        -15.187407 -0.45688125 4.0700383 -15.71523 -0.46630892 4.1103835
        -16.266127 -0.47669372 4.14202 -16.842005 -0.4881702 4.163429
        -17.444944 -0.5008928 4.1728783 -18.077194 -0.51504046 4.168402
        -18.741184 -0.5308206 4.1477757 -19.439535 -0.5484753 4.1084933
        -20.175066 -0.5682888 4.047738 -20.95084 -0.59059715 3.9623513
        -21.770166 -0.61580026 3.8487864 -22.63669 -0.64437807 3.7030473
        -23.554413 -0.67691076 3.5206113 -24.52778 -0.7141051 3.2963133
        -25.56177 -0.7568288 3.024198 -26.661976 -0.8061555 2.6973252
        -27.834736 -0.8634247 2.3075185 -29.08727 -0.9303206 1.8450341
        -30.427853 -1.0089743 1.2981186 -31.866047 -1.1021057 0.6523794
        -33.412926 -1.2132012 -0.11012256 -35.081276 -1.3467523 -1.0122213
        -36.885513 -1.5085473 -2.0835974 -38.84101 -1.7060299 -3.36353
        -40.962112 -1.9486903 -4.904461 -43.258 -2.2484467 -6.7761965
        -45.724895 -2.6198783 -9.06987 -48.333206 -3.0800624 -11.899736
        -51.008274 -3.6476274 -15.399281 -53.60511 -4.340291 -19.705748
        -55.880817 -5.1701894 -24.925594 -57.476055 -6.136113 -31.073381
        -57.92563 -7.2128043 -37.98344 -56.72673 -8.339606 -45.21244
        -53.484547 -9.414208 -51.980053 -48.117138 -10.300451 -57.220802
        -41.035007 -10.856749 -59.80118 -33.165176 -10.979188 -58.86692
        -25.741562 -10.63683 -54.163906 -19.930212 -9.886076 -46.140972
        -16.48164 -8.849775 -35.76446 -15.587702 -7.672592 -24.159548
        -0.2780552 -0.5310607 0.91316795 -0.28546906 -0.48154855 0.78220177
        -0.26286888 -0.44079423 0.6747713 -0.22536469 -0.40818214 0.59480095
        -0.18385124 -0.3826127 0.5397563 -0.14468193 -0.36285245 0.5044639
        -9.823632 -0.27057326 3.1777248 -10.16106 -0.2702173 3.2550867
        -10.508833 -0.2698561 3.3324156 -10.867369 -0.2694903 3.4094305
        -11.237143 -0.2691208 3.485818 -11.618702 -0.2687487 3.5612247
        -12.012668 -0.2683753 3.6352541 -12.419753 -0.26800227 3.707457
        -12.840765 -0.26763162 3.7773232 -13.27662 -0.26726592 3.844271
        -13.728351 -0.26690808 3.9076345 -14.197122 -0.26656199 3.9666505
        -14.684232 -0.26623213 4.020441 -15.191125 -0.2659241 4.0679984
        -15.7194 -0.2656445 4.1081624 -16.270813 -0.26540163 4.1396055
        -16.847284 -0.2652056 4.1608047 -17.450905 -0.26506853 4.170026
        -18.083933 -0.26500532 4.165298 -18.748821 -0.26503423 4.1443915
        -19.448202 -0.26517758 4.1047926 -20.184929 -0.2654628 4.043676
        -20.962086 -0.26592344 3.9578688 -21.78302 -0.26660126 3.8438098
        -22.651428 -0.26754636 3.697481 -23.571365 -0.2688223 3.5143304
        -24.547356 -0.27050704 3.2891536 -25.584463 -0.27269667 3.0159435
        -26.68841 -0.27551183 2.6876872 -27.865696 -0.27910107 2.296112
        -29.123743 -0.2836501 1.8313366 -30.4711 -0.28938985 1.2814159
        -31.917686 -0.29660696 0.6316883 -33.475048 -0.3056574 -0.13617757
        -35.156593 -0.31698093 -1.0455812 -36.977543 -0.33111802 -2.1270366
        -38.95429 -0.34872228 -3.4210315 -41.102432 -0.37057728 -4.981791
        -43.432625 -0.39758852 -6.8816977 -45.942635 -0.4307699 -9.215558
        -48.604202 -0.47118393 -12.102726 -51.343163 -0.5198285 -15.683415
        -54.013145 -0.5774367 -20.103195 -56.366478 -0.64421284 -25.477526
        -58.03377 -0.71938705 -31.828371 -58.533287 -0.80062175 -38.99158
        -57.339993 -0.88325286 -46.513214 -54.036346 -0.959682 -53.584538
        -48.52702 -1.0198705 -59.09329 -41.229538 -1.0541072 -61.850475
        -33.103535 -1.0576156 -60.957386 -25.432232 -1.0271788 -56.14643
        -19.427008 -0.9663452 -47.89143 -15.863333 -0.8850701 -37.20997
        -14.932631 -0.79470205 -25.28323 -1.3322945 -0.60834646 -0.12674904
        -0.23140717 -0.53380257 0.73309326 -0.21913338 -0.47790384 0.64272785
        -0.1910553 -0.43347138 0.57465076 -0.15750694 -0.3992128 0.527575
        -0.12474251 -0.37334174 0.49744081 -9.821946 -0.15749511 3.179667
        -10.159286 -0.15303431 3.2571352 -10.506958 -0.14837545 3.3345766
        -10.865379 -0.14349686 3.4117103 -11.235026 -0.1383737 3.4882216
        -11.61644 -0.13297755 3.5637593 -12.010242 -0.12727599 3.6379251
        -12.41714 -0.12123214 3.7102711 -12.837939 -0.114804 3.780286
        -13.273553 -0.10794402 3.8473887 -13.725013 -0.10059818 3.910914
        -14.193475 -0.0927053 3.9700985 -14.680235 -0.08419622 4.024065
        -15.186733 -0.074992426 4.071806 -15.714561 -0.06500518 4.112163
        -16.265467 -0.05413363 4.143809 -16.841364 -0.042263344 4.1652236
        -17.444332 -0.029263906 4.1746745 -18.076626 -0.014986025 4.170194
        -18.740677 0.0007416103 4.149557 -19.439108 0.018116923 4.1102543
        -20.174755 0.03737026 4.0494676 -20.950676 0.0587711 3.9640336
        -21.7702 0.082637176 3.8504028 -22.636984 0.10934952 3.7045727
        -23.555046 0.13936381 3.522012 -24.528856 0.1732333 3.297544
        -25.563421 0.21163684 3.025199 -26.66438 0.25541368 2.6980147
        -27.838121 0.30561227 2.3077855 -29.091932 0.36355528 1.8447242
        -30.434183 0.43092713 1.2970176 -31.874556 0.50989234 0.6501855
        -33.424274 0.6032531 -0.11383677 -35.09633 0.7146579 -1.0180634
        -36.9054 0.8488704 -2.09244 -38.867153 1.0120957 -3.376618
        -40.996323 1.2123655 -4.923588 -43.302505 1.4599205 -6.803933
        -45.782333 1.7675015 -9.109857 -48.4065 2.150309 -11.957082
        -51.100365 2.62527 -15.480967 -53.718273 3.2089868 -19.820976
        -56.015694 3.9135394 -25.085854 -57.63013 4.7394986 -31.291777
        -58.09163 5.666248 -38.272945 -56.891357 6.6418824 -45.582436
        -53.628723 7.5778537 -52.431656 -48.21874 8.355718 -57.742268
        -41.074154 8.850572 -60.36613 -33.132034 8.968016 -59.437756
        -25.641336 8.681625 -54.700207 -19.779993 8.041517 -46.60992
        -16.304598 7.1533065 -36.14779 -15.40641 6.141663 -24.454407
        -0.1368084 -0.6350689 0.7464199 -0.16494751 -0.5601857 0.66986847
        -0.16508675 -0.49702334 0.6024618 -0.14883614 -0.44648623 0.5502453
        -0.12544632 -0.4075446 0.5135813 -0.10085678 -0.3782966 0.4900105
        -9.81736 -0.044902995 3.183889 -10.154447 -0.036365114 3.2616546
        -10.501831 -0.027438618 3.3394115 -10.859926 -0.018079786 3.4168787
        -11.229202 -0.008238352 3.4937427 -11.610193 0.002143208 3.5696504
        -12.003514 0.013130603 3.644205 -12.409866 0.024798863 3.7169583
        -12.830043 0.037233323 3.7874 -13.264948 0.050531078 3.854949
        -13.715601 0.06480232 3.9189405 -14.183147 0.0801722 3.9786127
        -14.668866 0.09678266 4.0330906 -15.17418 0.11479466 4.0813684
        -15.700664 0.1343911 4.1222925 -16.250042 0.15577975 4.1545386
        -16.824203 0.17919725 4.1765943 -17.425201 0.20491378 4.1867337
        -18.055248 0.23323907 4.183 -18.716745 0.2645296 4.163182
        -19.41226 0.2991979 4.124788 -20.14457 0.33772463 4.0650225
        -20.916664 0.38067368 3.980754 -21.731783 0.4287101 3.8684695
        -22.593473 0.48263103 3.7242215 -23.50562 0.54339075 3.5435476
        -24.472517 0.6121484 3.3213649 -25.498957 0.6903219 3.0518272
        -26.590296 0.77966243 2.7281418 -27.752563 0.88235104 2.3423324
        -28.992584 1.0011296 1.8849294 -30.318104 1.1394736 1.3445585
        -31.737993 1.3018243 0.70736754 -33.26242 1.4938956 -0.04381764
        -34.90296 1.7230737 -0.93071103 -36.672474 1.9989204 -1.9813677
        -38.584316 2.3337839 -3.2326543 -40.650352 2.7434788 -4.7334976
        -42.876846 3.247942 -6.5485754 -45.2569 3.8716364 -8.7616825
        -47.758213 4.643285 -11.476894 -50.30501 5.594183 -14.814156
        -52.7548 6.753998 -18.893936 -54.87407 8.142635 -23.804512
        -56.323303 9.757052 -29.545227 -56.670555 11.553549 -35.94705
        -55.457848 13.429742 -42.587257 -52.336594 15.215975 -48.741817
        -47.252216 16.689186 -53.438354 -40.60134 17.617939 -55.654274
        -33.24813 17.830715 -54.624844 -26.331577 17.278313 -50.124447
        -20.926126 16.052244 -42.555447 -17.730038 14.348695 -32.78472
        -16.933693 12.400542 -21.826977 -0.058843613 -0.6288347 0.6479473
        -0.0960083 -0.55778646 0.60370827 -0.10809326 -0.49619675 0.5606394
        -0.10393524 -0.446023 0.5254135 -0.09126091 -0.4069209 0.49990463
        -0.0754118 -0.37736845 0.483284 -9.8097 0.06672417 3.1901512
        -10.146366 0.07928455 3.268401 -10.493275 0.092419595 3.3466723
        -10.850829 0.1061946 3.4246843 -11.219488 0.12068464 3.502124
        -11.59978 0.13597558 3.5786388 -11.992305 0.1521657 3.6538317
        -12.397749 0.16936705 3.7272546 -12.816894 0.18770735 3.7983983
        -13.250625 0.20733175 3.8666823 -13.699942 0.22840518 3.931444
        -14.165968 0.25111485 3.9919229 -14.64996 0.27567324 4.047248
        -15.153312 0.3023212 4.096417 -15.677566 0.3313324 4.138282
        -16.224411 0.36301774 4.171527 -16.795696 0.39773124 4.1946487
        -17.393421 0.43587703 4.205936 -18.019749 0.47791803 4.20345
        -18.677004 0.5243867 4.185001 -19.367683 0.57589877 4.148127
        -20.09446 0.63317096 4.090072 -20.860209 0.69704247 4.007753
        -21.668026 0.7685023 3.8977246 -22.521276 0.8487327 3.7561252
        -23.42362 0.9391461 3.5786083 -24.379076 1.0414537 3.3602443
        -25.39207 1.1577417 3.0953932 -26.467512 1.2905779 2.7775397
        -27.610842 1.4431463 2.3990834 -28.828123 1.6194296 1.9510728